<event>
 7    1  0.5972636E-013  0.5052887E+02  0.7816164E-02  0.1300439E+00
        -11   -1    0    0    0    0  0.00000000000E+00  0.00000000000E+00  0.45593999997E+02  0.45594000000E+02  0.51100000000E-03 0.  1.
         11   -1    0    0    0    0 -0.00000000000E+00 -0.00000000000E+00 -0.45593999997E+02  0.45594000000E+02  0.51100000000E-03 0. -1.
    9900012    2    1    2    0    0 -0.10669183062E+01 -0.26459334456E+02  0.30853370808E+02  0.50528865913E+02  0.30000018428E+02 0.  0.
         12    1    1    2    0    0  0.10669183062E+01  0.26459334456E+02 -0.30853370808E+02  0.40659134087E+02  0.00000000000E+00 0. -1.
         11    1    3    3    0    0 -0.16010149195E+01 -0.34901754227E+01 -0.57857710296E+01  0.69440420450E+01  0.51100000000E-03 0. -1.
        -11    1    3    3    0    0 -0.20621597587E+01 -0.85576410761E+01  0.11369072101E+02  0.14378509115E+02  0.51100000000E-03 0.  1.
         12    1    3    3    0    0  0.25962563720E+01 -0.14411517957E+02  0.25270069736E+02  0.29206314753E+02  0.00000000000E+00 0. -1.
</event>
<event>
 7    1  0.5972636E-013  0.5052886E+02  0.7816164E-02  0.1300439E+00
        -11   -1    0    0    0    0  0.00000000000E+00  0.00000000000E+00  0.45593999997E+02  0.45594000000E+02  0.51100000000E-03 0.  1.
         11   -1    0    0    0    0 -0.00000000000E+00 -0.00000000000E+00 -0.45593999997E+02  0.45594000000E+02  0.51100000000E-03 0. -1.
    9900012    2    1    2    0    0  0.13276590608E+02 -0.23630057174E+02  0.30307068236E+02  0.50528857790E+02  0.29999993737E+02 0.  0.
         12    1    1    2    0    0 -0.13276590608E+02  0.23630057174E+02 -0.30307068236E+02  0.40659142210E+02  0.00000000000E+00 0. -1.
         11    1    3    3    0    0  0.35776938633E+01 -0.27443067167E+01  0.28032334457E+01  0.53093531383E+01  0.51100000000E-03 0. -1.
        -11    1    3    3    0    0  0.95036226343E+01 -0.24904675685E+02  0.30272038148E+02  0.40335567531E+02  0.51100000000E-03 0.  1.
        -12    1    3    3    0    0  0.19527411067E+00  0.40189252284E+01 -0.27682033573E+01  0.48839371205E+01  0.00000000000E+00 0.  1.
</event>
<event>
 7    1  0.5972636E-013  0.5052891E+02  0.7816164E-02  0.1300439E+00
        -11   -1    0    0    0    0  0.00000000000E+00  0.00000000000E+00  0.45593999997E+02  0.45594000000E+02  0.51100000000E-03 0.  1.
         11   -1    0    0    0    0 -0.00000000000E+00 -0.00000000000E+00 -0.45593999997E+02  0.45594000000E+02  0.51100000000E-03 0. -1.
    9900012    2    1    2    0    0  0.42034270556E+00 -0.11555001672E+02  0.38980342071E+02  0.50528907295E+02  0.30000144213E+02 0.  0.
         12    1    1    2    0    0 -0.42034270556E+00  0.11555001672E+02 -0.38980342071E+02  0.40659092705E+02  0.00000000000E+00 0. -1.
         11    1    3    3    0    0 -0.77512301197E+01 -0.11139120867E+01  0.24358059840E+02  0.25585883763E+02  0.51100000000E-03 0. -1.
        -11    1    3    3    0    0  0.12005902463E+02 -0.68973513393E+01  0.13990637073E+02  0.19683827763E+02  0.51100000000E-03 0.  1.
         12    1    3    3    0    0 -0.38343296373E+01 -0.35437382461E+01  0.63164515761E+00  0.52591957683E+01  0.00000000000E+00 0. -1.
</event>
<event>
 7    1  0.5972636E-013  0.5052886E+02  0.7816164E-02  0.1300439E+00
        -11   -1    0    0    0    0  0.00000000000E+00  0.00000000000E+00  0.45593999997E+02  0.45594000000E+02  0.51100000000E-03 0. -1.
         11   -1    0    0    0    0 -0.00000000000E+00 -0.00000000000E+00 -0.45593999997E+02  0.45594000000E+02  0.51100000000E-03 0.  1.
    9900012    2    1    2    0    0  0.32484105008E+02  0.23969606443E+02 -0.48380364423E+01  0.50528859480E+02  0.29999998876E+02 0.  0.
         12    1    1    2    0    0 -0.32484105008E+02 -0.23969606443E+02  0.48380364423E+01  0.40659140520E+02  0.00000000000E+00 0. -1.
         11    1    3    3    0    0  0.57525094643E+01  0.37424437413E+01 -0.85560767454E+01  0.10968304328E+02  0.51100000000E-03 0. -1.
        -11    1    3    3    0    0  0.15772222256E+02  0.35233040541E+01  0.95205610381E+01  0.18756805408E+02  0.51100000000E-03 0.  1.
        -12    1    3    3    0    0  0.10959373287E+02  0.16703858647E+02 -0.58025207351E+01  0.20803749745E+02  0.00000000000E+00 0.  1.
</event>
<event>
 7    1  0.5972636E-013  0.5052886E+02  0.7816164E-02  0.1300439E+00
        -11   -1    0    0    0    0  0.00000000000E+00  0.00000000000E+00  0.45593999997E+02  0.45594000000E+02  0.51100000000E-03 0.  1.
         11   -1    0    0    0    0 -0.00000000000E+00 -0.00000000000E+00 -0.45593999997E+02  0.45594000000E+02  0.51100000000E-03 0. -1.
    9900012    2    1    2    0    0 -0.51737299785E+01  0.11201213529E+02  0.38741849218E+02  0.50528861455E+02  0.30000004878E+02 0.  0.
         12    1    1    2    0    0  0.51737299785E+01 -0.11201213529E+02 -0.38741849218E+02  0.40659138545E+02  0.00000000000E+00 0. -1.
         11    1    3    3    0    0  0.22164931159E+01  0.11789250168E+02  0.19608145982E+01  0.12155001250E+02  0.51100000000E-03 0. -1.
        -11    1    3    3    0    0 -0.72012926589E+01  0.23840531638E+01  0.21336846236E+02  0.22645161360E+02  0.51100000000E-03 0.  1.
         12    1    3    3    0    0 -0.18893043554E+00 -0.29720898030E+01  0.15444188383E+02  0.15728698844E+02  0.00000000000E+00 0. -1.
</event>
<event>
 7    1  0.5972636E-013  0.5052887E+02  0.7816164E-02  0.1300439E+00
        -11   -1    0    0    0    0  0.00000000000E+00  0.00000000000E+00  0.45593999997E+02  0.45594000000E+02  0.51100000000E-03 0. -1.
         11   -1    0    0    0    0 -0.00000000000E+00 -0.00000000000E+00 -0.45593999997E+02  0.45594000000E+02  0.51100000000E-03 0.  1.
    9900012    2    1    2    0    0 -0.33394507819E+00  0.38554209864E+02  0.12908385205E+02  0.50528867863E+02  0.30000024355E+02 0.  0.
         12    1    1    2    0    0  0.33394507819E+00 -0.38554209864E+02 -0.12908385205E+02  0.40659132137E+02  0.00000000000E+00 0. -1.
         11    1    3    3    0    0  0.31096531388E-02 -0.14195433183E+01  0.30373623858E+00  0.14516779485E+01  0.51100000000E-03 0. -1.
        -11    1    3    3    0    0  0.26555521308E+01  0.41169853145E+02  0.59487319301E+01  0.41682084604E+02  0.51100000000E-03 0.  1.
        -12    1    3    3    0    0 -0.29926068622E+01 -0.11960999629E+01  0.66559170359E+01  0.73951053097E+01  0.00000000000E+00 0.  1.
</event>
<event>
 7    1  0.5972636E-013  0.5052886E+02  0.7816164E-02  0.1300439E+00
        -11   -1    0    0    0    0  0.00000000000E+00  0.00000000000E+00  0.45593999997E+02  0.45594000000E+02  0.51100000000E-03 0. -1.
         11   -1    0    0    0    0 -0.00000000000E+00 -0.00000000000E+00 -0.45593999997E+02  0.45594000000E+02  0.51100000000E-03 0.  1.
    9900012    2    1    2    0    0 -0.19347558585E+02  0.16664764963E+02 -0.31640531573E+02  0.50528860158E+02  0.30000000936E+02 0.  0.
         12    1    1    2    0    0  0.19347558585E+02 -0.16664764963E+02  0.31640531573E+02  0.40659139842E+02  0.00000000000E+00 0. -1.
         11    1    3    3    0    0 -0.16142505650E+02 -0.18413734320E+01 -0.40088494276E+01  0.16734456034E+02  0.51100000000E-03 0. -1.
        -11    1    3    3    0    0 -0.45592431437E+01  0.14105846347E+02 -0.21835215112E+02  0.26392010505E+02  0.51100000000E-03 0.  1.
        -12    1    3    3    0    0  0.13541902082E+01  0.44002920476E+01 -0.57964670328E+01  0.74023936187E+01  0.00000000000E+00 0.  1.
</event>
<event>
 7    1  0.5972636E-013  0.5052887E+02  0.7816164E-02  0.1300439E+00
        -11   -1    0    0    0    0  0.00000000000E+00  0.00000000000E+00  0.45593999997E+02  0.45594000000E+02  0.51100000000E-03 0. -1.
         11   -1    0    0    0    0 -0.00000000000E+00 -0.00000000000E+00 -0.45593999997E+02  0.45594000000E+02  0.51100000000E-03 0.  1.
    9900012    2    1    2    0    0 -0.32456958640E+02 -0.85028787812E+01 -0.22965438242E+02  0.50528874759E+02  0.30000045319E+02 0.  0.
         12    1    1    2    0    0  0.32456958640E+02  0.85028787812E+01  0.22965438242E+02  0.40659125241E+02  0.00000000000E+00 0. -1.
         11    1    3    3    0    0 -0.18438372607E+02 -0.88838799363E+01  0.24864947998E+01  0.20617457742E+02  0.51100000000E-03 0. -1.
        -11    1    3    3    0    0 -0.31004820379E+01 -0.29112682487E+01 -0.80791631733E+01  0.91302436728E+01  0.51100000000E-03 0.  1.
         12    1    3    3    0    0 -0.10918103995E+02  0.32922694038E+01 -0.17372769868E+02  0.20781173344E+02  0.00000000000E+00 0. -1.
</event>
<event>
 7    1  0.5972636E-013  0.5052886E+02  0.7816164E-02  0.1300439E+00
        -11   -1    0    0    0    0  0.00000000000E+00  0.00000000000E+00  0.45593999997E+02  0.45594000000E+02  0.51100000000E-03 0.  1.
         11   -1    0    0    0    0 -0.00000000000E+00 -0.00000000000E+00 -0.45593999997E+02  0.45594000000E+02  0.51100000000E-03 0. -1.
    9900012    2    1    2    0    0 -0.92266484502E+01  0.29814449880E+02  0.26060184490E+02  0.50528859835E+02  0.29999999956E+02 0.  0.
         12    1    1    2    0    0  0.92266484502E+01 -0.29814449880E+02 -0.26060184490E+02  0.40659140165E+02  0.00000000000E+00 0. -1.
         11    1    3    3    0    0  0.34820554235E+01  0.19093197030E+02  0.10184668905E+02  0.21918083031E+02  0.51100000000E-03 0. -1.
        -11    1    3    3    0    0 -0.12247393102E+01 -0.15074790639E+01  0.10958575048E+02  0.11129368664E+02  0.51100000000E-03 0.  1.
         12    1    3    3    0    0 -0.11483964564E+02  0.12228731914E+02  0.49169405363E+01  0.17481408140E+02  0.00000000000E+00 0. -1.
</event>
<event>
 7    1  0.5972636E-013  0.5052886E+02  0.7816164E-02  0.1300439E+00
        -11   -1    0    0    0    0  0.00000000000E+00  0.00000000000E+00  0.45593999997E+02  0.45594000000E+02  0.51100000000E-03 0.  1.
         11   -1    0    0    0    0 -0.00000000000E+00 -0.00000000000E+00 -0.45593999997E+02  0.45594000000E+02  0.51100000000E-03 0. -1.
    9900012    2    1    2    0    0 -0.55237377906E+01  0.20199322183E+02  0.34851702740E+02  0.50528862286E+02  0.30000007404E+02 0.  0.
         12    1    1    2    0    0  0.55237377906E+01 -0.20199322183E+02 -0.34851702740E+02  0.40659137714E+02  0.00000000000E+00 0. -1.
         11    1    3    3    0    0  0.12018276022E+01 -0.15944078954E+01  0.22101781170E+02  0.22191783553E+02  0.51100000000E-03 0. -1.
        -11    1    3    3    0    0  0.64973651036E-01  0.12923059472E+02  0.24731479588E+01  0.13157741021E+02  0.51100000000E-03 0.  1.
         12    1    3    3    0    0 -0.67905390438E+01  0.88706706062E+01  0.10276773611E+02  0.15179337711E+02  0.00000000000E+00 0. -1.
</event>
<event>
 7    1  0.5972636E-013  0.5052876E+02  0.7816164E-02  0.1300439E+00
        -11   -1    0    0    0    0  0.00000000000E+00  0.00000000000E+00  0.45593999997E+02  0.45594000000E+02  0.51100000000E-03 0.  1.
         11   -1    0    0    0    0 -0.00000000000E+00 -0.00000000000E+00 -0.45593999997E+02  0.45594000000E+02  0.51100000000E-03 0. -1.
    9900012    2    1    2    0    0 -0.62102573448E+01 -0.21215899317E+02  0.34124649980E+02  0.50528764685E+02  0.29999710736E+02 0.  0.
         12    1    1    2    0    0  0.62102573448E+01  0.21215899317E+02 -0.34124649980E+02  0.40659235315E+02  0.00000000000E+00 0. -1.
         11    1    3    3    0    0  0.11855784709E+01 -0.13479632344E+01 -0.28589315211E+01  0.33758096651E+01  0.51100000000E-03 0. -1.
        -11    1    3    3    0    0 -0.25040115756E+01 -0.54254351519E+01  0.29625311596E+02  0.30221920984E+02  0.51100000000E-03 0.  1.
        -12    1    3    3    0    0 -0.48918242401E+01 -0.14442500931E+02  0.73582699049E+01  0.16931034036E+02  0.00000000000E+00 0.  1.
</event>
<event>
 7    1  0.5972636E-013  0.5052886E+02  0.7816164E-02  0.1300439E+00
        -11   -1    0    0    0    0  0.00000000000E+00  0.00000000000E+00  0.45593999997E+02  0.45594000000E+02  0.51100000000E-03 0.  1.
         11   -1    0    0    0    0 -0.00000000000E+00 -0.00000000000E+00 -0.45593999997E+02  0.45594000000E+02  0.51100000000E-03 0. -1.
    9900012    2    1    2    0    0  0.29048807934E+02 -0.14341584039E+02  0.24569316234E+02  0.50528861109E+02  0.30000003827E+02 0.  0.
         12    1    1    2    0    0 -0.29048807934E+02  0.14341584039E+02 -0.24569316234E+02  0.40659138891E+02  0.00000000000E+00 0. -1.
         11    1    3    3    0    0  0.58544669980E+01 -0.87777146406E+00 -0.50026240164E+01  0.77505815191E+01  0.51100000000E-03 0. -1.
        -11    1    3    3    0    0  0.11893767337E+02 -0.10078215515E+02  0.26237117877E+02  0.30519149467E+02  0.51100000000E-03 0.  1.
         12    1    3    3    0    0  0.11300573599E+02 -0.33855970599E+01  0.33348223740E+01  0.12259130123E+02  0.00000000000E+00 0. -1.
</event>
<event>
 7    1  0.5972636E-013  0.5052890E+02  0.7816164E-02  0.1300439E+00
        -11   -1    0    0    0    0  0.00000000000E+00  0.00000000000E+00  0.45593999997E+02  0.45594000000E+02  0.51100000000E-03 0.  1.
         11   -1    0    0    0    0 -0.00000000000E+00 -0.00000000000E+00 -0.45593999997E+02  0.45594000000E+02  0.51100000000E-03 0. -1.
    9900012    2    1    2    0    0 -0.19930049298E+02  0.71352268951E+01  0.34713742175E+02  0.50528902326E+02  0.30000129109E+02 0.  0.
         12    1    1    2    0    0  0.19930049298E+02 -0.71352268951E+01 -0.34713742175E+02  0.40659097674E+02  0.00000000000E+00 0. -1.
         11    1    3    3    0    0 -0.18990221760E+02 -0.74978799719E+01  0.12853437790E+02  0.24125869722E+02  0.51100000000E-03 0. -1.
        -11    1    3    3    0    0 -0.10494718835E+01  0.77474417215E+01  0.13158915481E+02  0.15306250401E+02  0.51100000000E-03 0.  1.
         12    1    3    3    0    0  0.10964434553E+00  0.68856651456E+01  0.87013889043E+01  0.11096782202E+02  0.00000000000E+00 0. -1.
</event>
<event>
 7    1  0.5972636E-013  0.5052886E+02  0.7816164E-02  0.1300439E+00
        -11   -1    0    0    0    0  0.00000000000E+00  0.00000000000E+00  0.45593999997E+02  0.45594000000E+02  0.51100000000E-03 0.  1.
         11   -1    0    0    0    0 -0.00000000000E+00 -0.00000000000E+00 -0.45593999997E+02  0.45594000000E+02  0.51100000000E-03 0. -1.
    9900012    2    1    2    0    0 -0.17170766133E+02  0.31429529950E+02  0.19248773724E+02  0.50528857702E+02  0.29999993472E+02 0.  0.
         12    1    1    2    0    0  0.17170766133E+02 -0.31429529950E+02 -0.19248773724E+02  0.40659142298E+02  0.00000000000E+00 0. -1.
         11    1    3    3    0    0 -0.17104530406E+02  0.15484571358E+02  0.10061737132E+02  0.25170924992E+02  0.51100000000E-03 0. -1.
        -11    1    3    3    0    0  0.36853414964E+01  0.25884640210E+01 -0.41423027245E+01  0.61188691811E+01  0.51100000000E-03 0.  1.
        -12    1    3    3    0    0 -0.37515772238E+01  0.13356494571E+02  0.13329339317E+02  0.19239063530E+02  0.00000000000E+00 0.  1.
</event>
<event>
 7    1  0.5972636E-013  0.5052884E+02  0.7816164E-02  0.1300439E+00
        -11   -1    0    0    0    0  0.00000000000E+00  0.00000000000E+00  0.45593999997E+02  0.45594000000E+02  0.51100000000E-03 0. -1.
         11   -1    0    0    0    0 -0.00000000000E+00 -0.00000000000E+00 -0.45593999997E+02  0.45594000000E+02  0.51100000000E-03 0.  1.
    9900012    2    1    2    0    0 -0.64654254102E+01 -0.33803356422E+02 -0.21649451703E+02  0.50528838792E+02  0.29999935991E+02 0.  0.
         12    1    1    2    0    0  0.64654254102E+01  0.33803356422E+02  0.21649451703E+02  0.40659161208E+02  0.00000000000E+00 0. -1.
         11    1    3    3    0    0  0.13742491567E+01 -0.80409468479E+01 -0.11721487291E+02  0.14280709069E+02  0.51100000000E-03 0. -1.
        -11    1    3    3    0    0  0.36003235623E+01 -0.96351866059E+00  0.41040329383E+01  0.55438059654E+01  0.51100000000E-03 0.  1.
        -12    1    3    3    0    0 -0.11439998129E+02 -0.24798890913E+02 -0.14031997351E+02  0.30704323757E+02  0.00000000000E+00 0.  1.
</event>
<event>
 7    1  0.5972636E-013  0.5052886E+02  0.7816164E-02  0.1300439E+00
        -11   -1    0    0    0    0  0.00000000000E+00  0.00000000000E+00  0.45593999997E+02  0.45594000000E+02  0.51100000000E-03 0. -1.
         11   -1    0    0    0    0 -0.00000000000E+00 -0.00000000000E+00 -0.45593999997E+02  0.45594000000E+02  0.51100000000E-03 0.  1.
    9900012    2    1    2    0    0 -0.18676725305E+01  0.39215996594E+02 -0.10572766757E+02  0.50528856053E+02  0.29999988460E+02 0.  0.
         12    1    1    2    0    0  0.18676725305E+01 -0.39215996594E+02  0.10572766757E+02  0.40659143947E+02  0.00000000000E+00 0. -1.
         11    1    3    3    0    0  0.32359890134E+01  0.21975944059E+02  0.19051632954E+01  0.22294469933E+02  0.51100000000E-03 0. -1.
        -11    1    3    3    0    0 -0.95870665160E+01  0.18029299505E+02 -0.11929539845E+02  0.23649131193E+02  0.51100000000E-03 0.  1.
         12    1    3    3    0    0  0.44834049721E+01 -0.78924696942E+00 -0.54839020752E+00  0.45852549266E+01  0.00000000000E+00 0. -1.
</event>
<event>
 7    1  0.5972636E-013  0.5052886E+02  0.7816164E-02  0.1300439E+00
        -11   -1    0    0    0    0  0.00000000000E+00  0.00000000000E+00  0.45593999997E+02  0.45594000000E+02  0.51100000000E-03 0.  1.
         11   -1    0    0    0    0 -0.00000000000E+00 -0.00000000000E+00 -0.45593999997E+02  0.45594000000E+02  0.51100000000E-03 0. -1.
    9900012    2    1    2    0    0  0.49949787727E+01 -0.16348447965E+01  0.40318029382E+02  0.50528855596E+02  0.29999987069E+02 0.  0.
         12    1    1    2    0    0 -0.49949787727E+01  0.16348447965E+01 -0.40318029382E+02  0.40659144404E+02  0.00000000000E+00 0. -1.
         11    1    3    3    0    0 -0.11356042324E+02  0.51663854978E+00  0.18050779206E+02  0.21332070758E+02  0.51100000000E-03 0. -1.
        -11    1    3    3    0    0  0.83397306701E+01 -0.45395649360E+01  0.70207807580E+01  0.11808900041E+02  0.51100000000E-03 0.  1.
         12    1    3    3    0    0  0.80112904264E+01  0.23880815897E+01  0.15246469418E+02  0.17387884797E+02  0.00000000000E+00 0. -1.
</event>
<event>
 7    1  0.5972636E-013  0.5052887E+02  0.7816164E-02  0.1300439E+00
        -11   -1    0    0    0    0  0.00000000000E+00  0.00000000000E+00  0.45593999997E+02  0.45594000000E+02  0.51100000000E-03 0.  1.
         11   -1    0    0    0    0 -0.00000000000E+00 -0.00000000000E+00 -0.45593999997E+02  0.45594000000E+02  0.51100000000E-03 0. -1.
    9900012    2    1    2    0    0 -0.40059630953E+02  0.98610645263E+00 -0.68861243889E+01  0.50528866375E+02  0.30000019834E+02 0.  0.
         12    1    1    2    0    0  0.40059630953E+02 -0.98610645263E+00  0.68861243889E+01  0.40659133625E+02  0.00000000000E+00 0. -1.
         11    1    3    3    0    0 -0.13017802331E+02 -0.72353896510E+01  0.56190487737E+01  0.15918157880E+02  0.51100000000E-03 0. -1.
        -11    1    3    3    0    0 -0.26501768272E+02  0.27648857559E+01 -0.91026218051E+01  0.28157521886E+02  0.51100000000E-03 0.  1.
         12    1    3    3    0    0 -0.54006035040E+00  0.54566103478E+01 -0.34025513575E+01  0.64531866090E+01  0.00000000000E+00 0. -1.
</event>
<event>
 7    1  0.5972636E-013  0.5052883E+02  0.7816164E-02  0.1300439E+00
        -11   -1    0    0    0    0  0.00000000000E+00  0.00000000000E+00  0.45593999997E+02  0.45594000000E+02  0.51100000000E-03 0.  1.
         11   -1    0    0    0    0 -0.00000000000E+00 -0.00000000000E+00 -0.45593999997E+02  0.45594000000E+02  0.51100000000E-03 0. -1.
    9900012    2    1    2    0    0  0.84719389882E+01 -0.39698178912E+02  0.23342594918E+01  0.50528832196E+02  0.29999915943E+02 0.  0.
         12    1    1    2    0    0 -0.84719389882E+01  0.39698178912E+02 -0.23342594918E+01  0.40659167804E+02  0.00000000000E+00 0. -1.
         11    1    3    3    0    0  0.83282556255E+01 -0.19101078625E+02 -0.67054422035E+01  0.21890043440E+02  0.51100000000E-03 0. -1.
        -11    1    3    3    0    0  0.58668937276E+01 -0.14759901970E+02  0.12039956102E+02  0.19930772473E+02  0.51100000000E-03 0.  1.
         12    1    3    3    0    0 -0.57232103648E+01 -0.58371983173E+01 -0.30002544070E+01  0.87080162828E+01  0.00000000000E+00 0. -1.
</event>
<event>
 7    1  0.5972636E-013  0.5052886E+02  0.7816164E-02  0.1300439E+00
        -11   -1    0    0    0    0  0.00000000000E+00  0.00000000000E+00  0.45593999997E+02  0.45594000000E+02  0.51100000000E-03 0.  1.
         11   -1    0    0    0    0 -0.00000000000E+00 -0.00000000000E+00 -0.45593999997E+02  0.45594000000E+02  0.51100000000E-03 0. -1.
    9900012    2    1    2    0    0  0.37171586365E+02  0.16440784797E+02 -0.10672555515E+01  0.50528864839E+02  0.30000015164E+02 0.  0.
         12    1    1    2    0    0 -0.37171586365E+02 -0.16440784797E+02  0.10672555515E+01  0.40659135161E+02  0.00000000000E+00 0. -1.
         11    1    3    3    0    0  0.28830774112E+01  0.12848422658E+02 -0.65219955629E+01  0.14694574732E+02  0.51100000000E-03 0. -1.
        -11    1    3    3    0    0  0.17620524920E+02  0.58764325916E+01  0.22861286733E+01  0.18714746673E+02  0.51100000000E-03 0.  1.
         12    1    3    3    0    0  0.16667984034E+02 -0.22840704525E+01  0.31686113381E+01  0.17119543434E+02  0.00000000000E+00 0. -1.
</event>
<event>
 7    1  0.5972636E-013  0.5052887E+02  0.7816164E-02  0.1300439E+00
        -11   -1    0    0    0    0  0.00000000000E+00  0.00000000000E+00  0.45593999997E+02  0.45594000000E+02  0.51100000000E-03 0.  1.
         11   -1    0    0    0    0 -0.00000000000E+00 -0.00000000000E+00 -0.45593999997E+02  0.45594000000E+02  0.51100000000E-03 0. -1.
    9900012    2    1    2    0    0 -0.24758242838E+02 -0.30718379296E+02  0.98272957832E+01  0.50528866249E+02  0.30000019450E+02 0.  0.
         12    1    1    2    0    0  0.24758242838E+02  0.30718379296E+02 -0.98272957832E+01  0.40659133751E+02  0.00000000000E+00 0. -1.
         11    1    3    3    0    0  0.34028090126E+01 -0.98823334365E+01 -0.20803752101E+01  0.10656809307E+02  0.51100000000E-03 0. -1.
        -11    1    3    3    0    0 -0.10519264519E+02 -0.12345252322E+02  0.12193230681E+02  0.20291255644E+02  0.51100000000E-03 0.  1.
         12    1    3    3    0    0 -0.17641787331E+02 -0.84907935370E+01 -0.28555968761E+00  0.19580801298E+02  0.00000000000E+00 0. -1.
</event>
<event>
 7    1  0.5972636E-013  0.5052886E+02  0.7816164E-02  0.1300439E+00
        -11   -1    0    0    0    0  0.00000000000E+00  0.00000000000E+00  0.45593999997E+02  0.45594000000E+02  0.51100000000E-03 0.  1.
         11   -1    0    0    0    0 -0.00000000000E+00 -0.00000000000E+00 -0.45593999997E+02  0.45594000000E+02  0.51100000000E-03 0. -1.
    9900012    2    1    2    0    0 -0.77221850298E+01  0.64261193491E+01  0.39398462623E+02  0.50528855782E+02  0.29999987634E+02 0.  0.
         12    1    1    2    0    0  0.77221850298E+01 -0.64261193491E+01 -0.39398462623E+02  0.40659144218E+02  0.00000000000E+00 0. -1.
         11    1    3    3    0    0 -0.16689702372E+02  0.20985507528E+01  0.16364022919E+02  0.23467665561E+02  0.51100000000E-03 0. -1.
        -11    1    3    3    0    0  0.99617697168E+01  0.53650030400E+01  0.22990148052E+02  0.25623563788E+02  0.51100000000E-03 0.  1.
        -12    1    3    3    0    0 -0.99425237450E+00 -0.10374344437E+01  0.44291652425E-01  0.14376264326E+01  0.00000000000E+00 0.  1.
</event>
<event>
 7    1  0.5972636E-013  0.5052886E+02  0.7816164E-02  0.1300439E+00
        -11   -1    0    0    0    0  0.00000000000E+00  0.00000000000E+00  0.45593999997E+02  0.45594000000E+02  0.51100000000E-03 0.  1.
         11   -1    0    0    0    0 -0.00000000000E+00 -0.00000000000E+00 -0.45593999997E+02  0.45594000000E+02  0.51100000000E-03 0. -1.
    9900012    2    1    2    0    0  0.11634134384E+02  0.23759785076E+02  0.30875321525E+02  0.50528856514E+02  0.29999989861E+02 0.  0.
         12    1    1    2    0    0 -0.11634134384E+02 -0.23759785076E+02 -0.30875321525E+02  0.40659143486E+02  0.00000000000E+00 0. -1.
         11    1    3    3    0    0 -0.15440571342E+00 -0.18823316814E+01 -0.98871268735E+00  0.21317989404E+01  0.51100000000E-03 0. -1.
        -11    1    3    3    0    0  0.16423420125E+02  0.13444454391E+02  0.11307244763E+02  0.24048614655E+02  0.51100000000E-03 0.  1.
        -12    1    3    3    0    0 -0.46348800269E+01  0.12197662366E+02  0.20556789450E+02  0.24348442918E+02  0.00000000000E+00 0.  1.
</event>
<event>
 7    1  0.5972636E-013  0.5052886E+02  0.7816164E-02  0.1300439E+00
        -11   -1    0    0    0    0  0.00000000000E+00  0.00000000000E+00  0.45593999997E+02  0.45594000000E+02  0.51100000000E-03 0. -1.
         11   -1    0    0    0    0 -0.00000000000E+00 -0.00000000000E+00 -0.45593999997E+02  0.45594000000E+02  0.51100000000E-03 0.  1.
    9900012    2    1    2    0    0 -0.13885983000E+02 -0.36482685156E+02  0.11373616019E+02  0.50528856115E+02  0.29999988648E+02 0.  0.
         12    1    1    2    0    0  0.13885983000E+02  0.36482685156E+02 -0.11373616019E+02  0.40659143885E+02  0.00000000000E+00 0. -1.
         11    1    3    3    0    0  0.80216167754E+01 -0.30328085764E+01  0.14224880344E+01  0.86929704947E+01  0.51100000000E-03 0. -1.
        -11    1    3    3    0    0 -0.12043199446E+02 -0.20482178261E+02  0.24105731071E+01  0.23882402354E+02  0.51100000000E-03 0.  1.
         12    1    3    3    0    0 -0.98644003298E+01 -0.12967698318E+02  0.75405548780E+01  0.17953483267E+02  0.00000000000E+00 0. -1.
</event>
<event>
 7    1  0.5972636E-013  0.5052886E+02  0.7816164E-02  0.1300439E+00
        -11   -1    0    0    0    0  0.00000000000E+00  0.00000000000E+00  0.45593999997E+02  0.45594000000E+02  0.51100000000E-03 0.  1.
         11   -1    0    0    0    0 -0.00000000000E+00 -0.00000000000E+00 -0.45593999997E+02  0.45594000000E+02  0.51100000000E-03 0. -1.
    9900012    2    1    2    0    0  0.18069698240E+02 -0.28523175695E+02  0.22651269009E+02  0.50528861618E+02  0.30000005375E+02 0.  0.
         12    1    1    2    0    0 -0.18069698240E+02  0.28523175695E+02 -0.22651269009E+02  0.40659138382E+02  0.00000000000E+00 0. -1.
         11    1    3    3    0    0  0.44238865213E+00 -0.13830604545E+02 -0.94733104379E+00  0.13870067273E+02  0.51100000000E-03 0. -1.
        -11    1    3    3    0    0  0.85918144660E+01  0.10412372716E+01  0.13087560063E+02  0.15690369005E+02  0.51100000000E-03 0.  1.
        -12    1    3    3    0    0  0.90354951222E+01 -0.15733808421E+02  0.10511039990E+02  0.20968425340E+02  0.00000000000E+00 0.  1.
</event>
<event>
 7    1  0.5972636E-013  0.5052886E+02  0.7816164E-02  0.1300439E+00
        -11   -1    0    0    0    0  0.00000000000E+00  0.00000000000E+00  0.45593999997E+02  0.45594000000E+02  0.51100000000E-03 0.  1.
         11   -1    0    0    0    0 -0.00000000000E+00 -0.00000000000E+00 -0.45593999997E+02  0.45594000000E+02  0.51100000000E-03 0. -1.
    9900012    2    1    2    0    0 -0.13654059747E+02  0.18060300283E+02  0.33772143226E+02  0.50528862626E+02  0.30000008439E+02 0.  0.
         12    1    1    2    0    0  0.13654059747E+02 -0.18060300283E+02 -0.33772143226E+02  0.40659137374E+02  0.00000000000E+00 0. -1.
         11    1    3    3    0    0  0.28982022484E+01  0.13495498261E+02  0.66555196060E+01  0.15323967864E+02  0.51100000000E-03 0. -1.
        -11    1    3    3    0    0 -0.12850544371E+02  0.91468794465E+01  0.23466781580E+02  0.28275284830E+02  0.51100000000E-03 0.  1.
         12    1    3    3    0    0 -0.37017176251E+01 -0.45820774249E+01  0.36498420393E+01  0.69296099324E+01  0.00000000000E+00 0. -1.
</event>
<event>
 7    1  0.5972636E-013  0.5052886E+02  0.7816164E-02  0.1300439E+00
        -11   -1    0    0    0    0  0.00000000000E+00  0.00000000000E+00  0.45593999997E+02  0.45594000000E+02  0.51100000000E-03 0. -1.
         11   -1    0    0    0    0 -0.00000000000E+00 -0.00000000000E+00 -0.45593999997E+02  0.45594000000E+02  0.51100000000E-03 0.  1.
    9900012    2    1    2    0    0 -0.26807484570E+00 -0.30412534297E+02 -0.26984655567E+02  0.50528859053E+02  0.29999997578E+02 0.  0.
         12    1    1    2    0    0  0.26807484570E+00  0.30412534297E+02  0.26984655567E+02  0.40659140947E+02  0.00000000000E+00 0. -1.
         11    1    3    3    0    0  0.49997590322E+00 -0.15163164137E+02 -0.82395787730E+01  0.17264477437E+02  0.51100000000E-03 0. -1.
        -11    1    3    3    0    0 -0.67098677402E+01  0.33067602049E+01 -0.24717335263E+01  0.78782266424E+01  0.51100000000E-03 0.  1.
        -12    1    3    3    0    0  0.59418169913E+01 -0.18556130365E+02 -0.16273343267E+02  0.25386154974E+02  0.00000000000E+00 0.  1.
</event>
<event>
 7    1  0.5972636E-013  0.5052887E+02  0.7816164E-02  0.1300439E+00
        -11   -1    0    0    0    0  0.00000000000E+00  0.00000000000E+00  0.45593999997E+02  0.45594000000E+02  0.51100000000E-03 0.  1.
         11   -1    0    0    0    0 -0.00000000000E+00 -0.00000000000E+00 -0.45593999997E+02  0.45594000000E+02  0.51100000000E-03 0. -1.
    9900012    2    1    2    0    0  0.33520599165E+02  0.87069776694E+01  0.21300772102E+02  0.50528869160E+02  0.30000028299E+02 0.  0.
         12    1    1    2    0    0 -0.33520599165E+02 -0.87069776694E+01 -0.21300772102E+02  0.40659130840E+02  0.00000000000E+00 0. -1.
         11    1    3    3    0    0  0.23017698153E+02  0.70144930088E+01  0.28763898890E+01  0.24234090853E+02  0.51100000000E-03 0. -1.
        -11    1    3    3    0    0 -0.35673885396E+01 -0.12716513279E+01  0.68852178682E+01  0.78580903180E+01  0.51100000000E-03 0.  1.
        -12    1    3    3    0    0  0.14070289552E+02  0.29641359885E+01  0.11539164345E+02  0.18436687989E+02  0.00000000000E+00 0.  1.
</event>
<event>
 7    1  0.5972636E-013  0.5052886E+02  0.7816164E-02  0.1300439E+00
        -11   -1    0    0    0    0  0.00000000000E+00  0.00000000000E+00  0.45593999997E+02  0.45594000000E+02  0.51100000000E-03 0.  1.
         11   -1    0    0    0    0 -0.00000000000E+00 -0.00000000000E+00 -0.45593999997E+02  0.45594000000E+02  0.51100000000E-03 0. -1.
    9900012    2    1    2    0    0 -0.35284643761E+01 -0.24427552361E+02  0.32311150458E+02  0.50528858111E+02  0.29999994716E+02 0.  0.
         12    1    1    2    0    0  0.35284643761E+01  0.24427552361E+02 -0.32311150458E+02  0.40659141889E+02  0.00000000000E+00 0. -1.
         11    1    3    3    0    0  0.75630185108E+01  0.22187390917E+01  0.71073175356E+01  0.10613011588E+02  0.51100000000E-03 0. -1.
        -11    1    3    3    0    0 -0.43380119378E+01 -0.20734107818E+02  0.21570733387E+02  0.30232732488E+02  0.51100000000E-03 0.  1.
         12    1    3    3    0    0 -0.67534709491E+01 -0.59121836343E+01  0.36330995355E+01  0.96831140353E+01  0.00000000000E+00 0. -1.
</event>
<event>
 7    1  0.5972636E-013  0.5052885E+02  0.7816164E-02  0.1300439E+00
        -11   -1    0    0    0    0  0.00000000000E+00  0.00000000000E+00  0.45593999997E+02  0.45594000000E+02  0.51100000000E-03 0.  1.
         11   -1    0    0    0    0 -0.00000000000E+00 -0.00000000000E+00 -0.45593999997E+02  0.45594000000E+02  0.51100000000E-03 0. -1.
    9900012    2    1    2    0    0 -0.34726542001E+02 -0.97961423328E+01  0.18742176245E+02  0.50528852267E+02  0.29999976951E+02 0.  0.
         12    1    1    2    0    0  0.34726542001E+02  0.97961423328E+01 -0.18742176245E+02  0.40659147733E+02  0.00000000000E+00 0. -1.
         11    1    3    3    0    0 -0.16128077894E+02 -0.57919687679E+01  0.27215944256E+01  0.17351336411E+02  0.51100000000E-03 0. -1.
        -11    1    3    3    0    0  0.44776315993E+01 -0.20918147717E+01  0.64418991724E+01  0.81192942419E+01  0.51100000000E-03 0.  1.
        -12    1    3    3    0    0 -0.23076095706E+02 -0.19123587932E+01  0.95786826472E+01  0.25058221614E+02  0.00000000000E+00 0.  1.
</event>
<event>
 7    1  0.5972636E-013  0.5052899E+02  0.7816164E-02  0.1300438E+00
        -11   -1    0    0    0    0  0.00000000000E+00  0.00000000000E+00  0.45593999997E+02  0.45594000000E+02  0.51100000000E-03 0.  1.
         11   -1    0    0    0    0 -0.00000000000E+00 -0.00000000000E+00 -0.45593999997E+02  0.45594000000E+02  0.51100000000E-03 0. -1.
    9900012    2    1    2    0    0 -0.21053986361E+02 -0.32939083627E+02  0.11175919829E+02  0.50528994160E+02  0.30000408247E+02 0.  0.
         12    1    1    2    0    0  0.21053986361E+02  0.32939083627E+02 -0.11175919829E+02  0.40659005840E+02  0.00000000000E+00 0. -1.
         11    1    3    3    0    0 -0.19756904696E+02 -0.24043964637E+02  0.18222608698E+02  0.36062598168E+02  0.51100000000E-03 0. -1.
        -11    1    3    3    0    0  0.22159380507E+01  0.16210741011E+00  0.35926375141E+00  0.22507178769E+01  0.51100000000E-03 0.  1.
         12    1    3    3    0    0 -0.35130197151E+01 -0.90572264005E+01 -0.74059526211E+01  0.12215678115E+02  0.00000000000E+00 0. -1.
</event>
<event>
 7    1  0.5972636E-013  0.5052886E+02  0.7816164E-02  0.1300439E+00
        -11   -1    0    0    0    0  0.00000000000E+00  0.00000000000E+00  0.45593999997E+02  0.45594000000E+02  0.51100000000E-03 0.  1.
         11   -1    0    0    0    0 -0.00000000000E+00 -0.00000000000E+00 -0.45593999997E+02  0.45594000000E+02  0.51100000000E-03 0. -1.
    9900012    2    1    2    0    0  0.18297082357E+02 -0.12244254092E+02  0.34182752078E+02  0.50528861781E+02  0.30000005871E+02 0.  0.
         12    1    1    2    0    0 -0.18297082357E+02  0.12244254092E+02 -0.34182752078E+02  0.40659138219E+02  0.00000000000E+00 0. -1.
         11    1    3    3    0    0 -0.51084265828E+01  0.25700517722E+01  0.18117926998E+01  0.59986482904E+01  0.51100000000E-03 0. -1.
        -11    1    3    3    0    0  0.10364322284E+02 -0.12690415319E+02  0.12246786001E+02  0.20456040306E+02  0.51100000000E-03 0.  1.
         12    1    3    3    0    0  0.13041186656E+02 -0.21238905449E+01  0.20124173377E+02  0.24074173185E+02  0.00000000000E+00 0. -1.
</event>
<event>
 7    1  0.5972636E-013  0.5052888E+02  0.7816164E-02  0.1300439E+00
        -11   -1    0    0    0    0  0.00000000000E+00  0.00000000000E+00  0.45593999997E+02  0.45594000000E+02  0.51100000000E-03 0. -1.
         11   -1    0    0    0    0 -0.00000000000E+00 -0.00000000000E+00 -0.45593999997E+02  0.45594000000E+02  0.51100000000E-03 0.  1.
    9900012    2    1    2    0    0  0.16105083143E+02 -0.31838600988E+01 -0.37197490142E+02  0.50528881207E+02  0.30000064918E+02 0.  0.
         12    1    1    2    0    0 -0.16105083143E+02  0.31838600988E+01  0.37197490142E+02  0.40659118793E+02  0.00000000000E+00 0. -1.
         11    1    3    3    0    0 -0.36007673876E+01 -0.75569383431E+01 -0.23018649396E+00  0.83741166092E+01  0.51100000000E-03 0. -1.
        -11    1    3    3    0    0  0.11096481773E+02  0.30902229010E+01 -0.22294319925E+02  0.25094184316E+02  0.51100000000E-03 0.  1.
         12    1    3    3    0    0  0.86093687576E+01  0.12828553433E+01 -0.14672983723E+02  0.17060580282E+02  0.00000000000E+00 0. -1.
</event>
<event>
 7    1  0.5972636E-013  0.5052897E+02  0.7816164E-02  0.1300438E+00
        -11   -1    0    0    0    0  0.00000000000E+00  0.00000000000E+00  0.45593999997E+02  0.45594000000E+02  0.51100000000E-03 0.  1.
         11   -1    0    0    0    0 -0.00000000000E+00 -0.00000000000E+00 -0.45593999997E+02  0.45594000000E+02  0.51100000000E-03 0. -1.
    9900012    2    1    2    0    0  0.23421903535E+02 -0.32179889511E+02  0.83081784132E+01  0.50528970465E+02  0.30000336225E+02 0.  0.
         12    1    1    2    0    0 -0.23421903535E+02  0.32179889511E+02 -0.83081784132E+01  0.40659029535E+02  0.00000000000E+00 0. -1.
         11    1    3    3    0    0  0.45212262165E+01 -0.52082928761E+01 -0.43577675183E+01  0.81583049212E+01  0.51100000000E-03 0. -1.
        -11    1    3    3    0    0 -0.98691199373E+00  0.46565603931E+00  0.81051368200E+01  0.81782683963E+01  0.51100000000E-03 0.  1.
        -12    1    3    3    0    0  0.19887589312E+02 -0.27437252674E+02  0.45608091116E+01  0.34192397148E+02  0.00000000000E+00 0.  1.
</event>
<event>
 7    1  0.5972636E-013  0.5052885E+02  0.7816164E-02  0.1300439E+00
        -11   -1    0    0    0    0  0.00000000000E+00  0.00000000000E+00  0.45593999997E+02  0.45594000000E+02  0.51100000000E-03 0.  1.
         11   -1    0    0    0    0 -0.00000000000E+00 -0.00000000000E+00 -0.45593999997E+02  0.45594000000E+02  0.51100000000E-03 0. -1.
    9900012    2    1    2    0    0  0.56692996825E+00 -0.28698995936E+02  0.28796057125E+02  0.50528847485E+02  0.29999962414E+02 0.  0.
         12    1    1    2    0    0 -0.56692996825E+00  0.28698995936E+02 -0.28796057125E+02  0.40659152515E+02  0.00000000000E+00 0. -1.
         11    1    3    3    0    0 -0.16626756020E+01  0.45729521498E+01 -0.88940960622E+00  0.49464564317E+01  0.51100000000E-03 0. -1.
        -11    1    3    3    0    0  0.54831876705E+01 -0.19621348875E+02  0.15235917738E+02  0.25440044581E+02  0.51100000000E-03 0.  1.
         12    1    3    3    0    0 -0.32535821002E+01 -0.13650599210E+02  0.14449548993E+02  0.20142346472E+02  0.00000000000E+00 0. -1.
</event>
<event>
 7    1  0.5972636E-013  0.5052886E+02  0.7816164E-02  0.1300439E+00
        -11   -1    0    0    0    0  0.00000000000E+00  0.00000000000E+00  0.45593999997E+02  0.45594000000E+02  0.51100000000E-03 0.  1.
         11   -1    0    0    0    0 -0.00000000000E+00 -0.00000000000E+00 -0.45593999997E+02  0.45594000000E+02  0.51100000000E-03 0. -1.
    9900012    2    1    2    0    0  0.23987921500E+02  0.84649727054E+01  0.31718916549E+02  0.50528858250E+02  0.29999995136E+02 0.  0.
         12    1    1    2    0    0 -0.23987921500E+02 -0.84649727054E+01 -0.31718916549E+02  0.40659141750E+02  0.00000000000E+00 0. -1.
         11    1    3    3    0    0  0.17219030134E+02  0.74237415336E+01  0.19453970299E+02  0.27019694628E+02  0.51100000000E-03 0.  1.
        -11    1    3    3    0    0  0.68478003657E+01 -0.58296628225E+01 -0.50557585579E+00  0.90073828430E+01  0.51100000000E-03 0. -1.
        -12    1    3    3    0    0 -0.78908998860E-01  0.68708939942E+01  0.12770522106E+02  0.14501780779E+02  0.00000000000E+00 0.  1.
</event>
<event>
 7    1  0.5972636E-013  0.5052888E+02  0.7816164E-02  0.1300439E+00
        -11   -1    0    0    0    0  0.00000000000E+00  0.00000000000E+00  0.45593999997E+02  0.45594000000E+02  0.51100000000E-03 0.  1.
         11   -1    0    0    0    0 -0.00000000000E+00 -0.00000000000E+00 -0.45593999997E+02  0.45594000000E+02  0.51100000000E-03 0. -1.
    9900012    2    1    2    0    0  0.49649617731E+01  0.34322968625E+02  0.21223730458E+02  0.50528883492E+02  0.30000071863E+02 0.  0.
         12    1    1    2    0    0 -0.49649617731E+01 -0.34322968625E+02 -0.21223730458E+02  0.40659116508E+02  0.00000000000E+00 0. -1.
         11    1    3    3    0    0  0.63282504023E+01  0.51920063589E+01 -0.10593831949E+00  0.81862632729E+01  0.51100000000E-03 0. -1.
        -11    1    3    3    0    0 -0.64185136205E+01  0.30301766925E+02  0.20352548970E+02  0.37062388560E+02  0.51100000000E-03 0.  1.
        -12    1    3    3    0    0  0.50552249914E+01 -0.11708046591E+01  0.97711980705E+00  0.52802316597E+01  0.00000000000E+00 0.  1.
</event>
<event>
 7    1  0.5972636E-013  0.5052881E+02  0.7816164E-02  0.1300439E+00
        -11   -1    0    0    0    0  0.00000000000E+00  0.00000000000E+00  0.45593999997E+02  0.45594000000E+02  0.51100000000E-03 0.  1.
         11   -1    0    0    0    0 -0.00000000000E+00 -0.00000000000E+00 -0.45593999997E+02  0.45594000000E+02  0.51100000000E-03 0. -1.
    9900012    2    1    2    0    0  0.81014745334E+01 -0.27801310098E+02  0.28541595123E+02  0.50528814261E+02  0.29999861427E+02 0.  0.
         12    1    1    2    0    0 -0.81014745334E+01  0.27801310098E+02 -0.28541595123E+02  0.40659185739E+02  0.00000000000E+00 0. -1.
         11    1    3    3    0    0  0.16602490856E+01 -0.26760574800E+02  0.18094107812E+02  0.32346275341E+02  0.51100000000E-03 0. -1.
        -11    1    3    3    0    0  0.53166300015E+01  0.55565010903E+01  0.32339222297E+01  0.83426322098E+01  0.51100000000E-03 0.  1.
        -12    1    3    3    0    0  0.11245954464E+01 -0.65972363879E+01  0.72135650812E+01  0.98399067097E+01  0.00000000000E+00 0.  1.
</event>
<event>
 7    1  0.5972636E-013  0.5052884E+02  0.7816164E-02  0.1300439E+00
        -11   -1    0    0    0    0  0.00000000000E+00  0.00000000000E+00  0.45593999997E+02  0.45594000000E+02  0.51100000000E-03 0. -1.
         11   -1    0    0    0    0 -0.00000000000E+00 -0.00000000000E+00 -0.45593999997E+02  0.45594000000E+02  0.51100000000E-03 0.  1.
    9900012    2    1    2    0    0  0.29552053479E+02 -0.24559262257E+02 -0.13292315755E+02  0.50528844997E+02  0.29999954853E+02 0.  0.
         12    1    1    2    0    0 -0.29552053479E+02  0.24559262257E+02  0.13292315755E+02  0.40659155003E+02  0.00000000000E+00 0. -1.
         11    1    3    3    0    0 -0.52783573980E+00 -0.32535506619E+00  0.63452539264E+01  0.63754775617E+01  0.51100000000E-03 0. -1.
        -11    1    3    3    0    0  0.14100509983E+02 -0.11173327689E+02 -0.44597309004E+01  0.18535286170E+02  0.51100000000E-03 0.  1.
         12    1    3    3    0    0  0.15979379236E+02 -0.13060579502E+02 -0.15177838781E+02  0.25618081266E+02  0.00000000000E+00 0. -1.
</event>
<event>
 7    1  0.5972636E-013  0.5052890E+02  0.7816164E-02  0.1300439E+00
        -11   -1    0    0    0    0  0.00000000000E+00  0.00000000000E+00  0.45593999997E+02  0.45594000000E+02  0.51100000000E-03 0.  1.
         11   -1    0    0    0    0 -0.00000000000E+00 -0.00000000000E+00 -0.45593999997E+02  0.45594000000E+02  0.51100000000E-03 0. -1.
    9900012    2    1    2    0    0  0.36640440312E+02 -0.50318692263E+01  0.16891432124E+02  0.50528904420E+02  0.30000135474E+02 0.  0.
         12    1    1    2    0    0 -0.36640440312E+02  0.50318692263E+01 -0.16891432124E+02  0.40659095580E+02  0.00000000000E+00 0. -1.
         11    1    3    3    0    0  0.32693705610E+02 -0.89914528988E+00  0.12412563635E+02  0.34982261005E+02  0.51100000000E-03 0.  1.
        -11    1    3    3    0    0  0.12916651049E+01 -0.42244914565E+01 -0.44263576899E+01  0.62535885273E+01  0.51100000000E-03 0. -1.
        -12    1    3    3    0    0  0.26550695974E+01  0.91767520059E-01  0.89052261791E+01  0.92930548877E+01  0.00000000000E+00 0.  1.
</event>
<event>
 7    1  0.5972636E-013  0.5052887E+02  0.7816164E-02  0.1300439E+00
        -11   -1    0    0    0    0  0.00000000000E+00  0.00000000000E+00  0.45593999997E+02  0.45594000000E+02  0.51100000000E-03 0.  1.
         11   -1    0    0    0    0 -0.00000000000E+00 -0.00000000000E+00 -0.45593999997E+02  0.45594000000E+02  0.51100000000E-03 0. -1.
    9900012    2    1    2    0    0 -0.31418522984E+02  0.69638303442E+01  0.24850483947E+02  0.50528867300E+02  0.30000022644E+02 0.  0.
         12    1    1    2    0    0  0.31418522984E+02 -0.69638303442E+01 -0.24850483947E+02  0.40659132700E+02  0.00000000000E+00 0. -1.
         11    1    3    3    0    0  0.15548047869E+01  0.31759516317E+01  0.16183624169E+01  0.38888537984E+01  0.51100000000E-03 0. -1.
        -11    1    3    3    0    0 -0.19392263161E+02 -0.58393536892E+01  0.22067448918E+02  0.29952132212E+02  0.51100000000E-03 0.  1.
        -12    1    3    3    0    0 -0.13581064609E+02  0.96272324017E+01  0.11646726122E+01  0.16687881290E+02  0.00000000000E+00 0.  1.
</event>
<event>
 7    1  0.5972636E-013  0.5052886E+02  0.7816164E-02  0.1300439E+00
        -11   -1    0    0    0    0  0.00000000000E+00  0.00000000000E+00  0.45593999997E+02  0.45594000000E+02  0.51100000000E-03 0. -1.
         11   -1    0    0    0    0 -0.00000000000E+00 -0.00000000000E+00 -0.45593999997E+02  0.45594000000E+02  0.51100000000E-03 0.  1.
    9900012    2    1    2    0    0 -0.20865210713E+01 -0.50611394653E+01 -0.40288918068E+02  0.50528860536E+02  0.30000002084E+02 0.  0.
         12    1    1    2    0    0  0.20865210713E+01  0.50611394653E+01  0.40288918068E+02  0.40659139464E+02  0.00000000000E+00 0. -1.
         11    1    3    3    0    0  0.31887886503E+01  0.39915998708E+01  0.68644028491E+00  0.51548465652E+01  0.51100000000E-03 0. -1.
        -11    1    3    3    0    0 -0.68135969019E+00 -0.11543935822E+02 -0.37120757692E+02  0.38880295230E+02  0.51100000000E-03 0.  1.
        -12    1    3    3    0    0 -0.45939500313E+01  0.24911964854E+01 -0.38546006609E+01  0.64937187400E+01  0.00000000000E+00 0.  1.
</event>
<event>
 7    1  0.5972636E-013  0.5052891E+02  0.7816164E-02  0.1300439E+00
        -11   -1    0    0    0    0  0.00000000000E+00  0.00000000000E+00  0.45593999997E+02  0.45594000000E+02  0.51100000000E-03 0.  1.
         11   -1    0    0    0    0 -0.00000000000E+00 -0.00000000000E+00 -0.45593999997E+02  0.45594000000E+02  0.51100000000E-03 0. -1.
    9900012    2    1    2    0    0 -0.31067271682E+01  0.10082515177E+01  0.40527682184E+02  0.50528913094E+02  0.30000161840E+02 0.  0.
         12    1    1    2    0    0  0.31067271682E+01 -0.10082515177E+01 -0.40527682184E+02  0.40659086906E+02  0.00000000000E+00 0. -1.
         11    1    3    3    0    0 -0.70247196177E+00 -0.55246640293E+01  0.45897738241E+01  0.72167446616E+01  0.51100000000E-03 0. -1.
        -11    1    3    3    0    0  0.23362615066E+01  0.51748960109E+01  0.37662514818E+02  0.38088091174E+02  0.51100000000E-03 0.  1.
        -12    1    3    3    0    0 -0.47405167131E+01  0.13580195361E+01 -0.17246064583E+01  0.52240772586E+01  0.00000000000E+00 0.  1.
</event>
<event>
 7    1  0.5972636E-013  0.5052888E+02  0.7816164E-02  0.1300439E+00
        -11   -1    0    0    0    0  0.00000000000E+00  0.00000000000E+00  0.45593999997E+02  0.45594000000E+02  0.51100000000E-03 0.  1.
         11   -1    0    0    0    0 -0.00000000000E+00 -0.00000000000E+00 -0.45593999997E+02  0.45594000000E+02  0.51100000000E-03 0. -1.
    9900012    2    1    2    0    0 -0.21965337703E+02  0.11009832080E+02  0.32395554590E+02  0.50528875317E+02  0.30000047013E+02 0.  0.
         12    1    1    2    0    0  0.21965337703E+02 -0.11009832080E+02 -0.32395554590E+02  0.40659124683E+02  0.00000000000E+00 0. -1.
         11    1    3    3    0    0 -0.28353995406E+01  0.15423992097E+02  0.69700246336E+01  0.17161592771E+02  0.51100000000E-03 0. -1.
        -11    1    3    3    0    0 -0.30813220425E+01 -0.39838061309E+01  0.95079726143E+01  0.10759498144E+02  0.51100000000E-03 0.  1.
         12    1    3    3    0    0 -0.16048616119E+02 -0.43035388670E+00  0.15917557342E+02  0.22607784402E+02  0.00000000000E+00 0. -1.
</event>
<event>
 7    1  0.5972636E-013  0.5052883E+02  0.7816164E-02  0.1300439E+00
        -11   -1    0    0    0    0  0.00000000000E+00  0.00000000000E+00  0.45593999997E+02  0.45594000000E+02  0.51100000000E-03 0.  1.
         11   -1    0    0    0    0 -0.00000000000E+00 -0.00000000000E+00 -0.45593999997E+02  0.45594000000E+02  0.51100000000E-03 0. -1.
    9900012    2    1    2    0    0 -0.18427470200E+02 -0.21973478864E+02  0.28822957709E+02  0.50528827327E+02  0.29999901142E+02 0.  0.
         12    1    1    2    0    0  0.18427470200E+02  0.21973478864E+02 -0.28822957709E+02  0.40659172673E+02  0.00000000000E+00 0. -1.
         11    1    3    3    0    0 -0.14679662373E+01 -0.12011806007E+02 -0.16484869431E+01  0.12212940592E+02  0.51100000000E-03 0. -1.
        -11    1    3    3    0    0 -0.85111205288E+01  0.10850694238E+00  0.19192951688E+02  0.20995721973E+02  0.51100000000E-03 0.  1.
        -12    1    3    3    0    0 -0.84483834342E+01 -0.10070179799E+02  0.11278492964E+02  0.17320164762E+02  0.00000000000E+00 0.  1.
</event>
<event>
 7    1  0.5972636E-013  0.5052886E+02  0.7816164E-02  0.1300439E+00
        -11   -1    0    0    0    0  0.00000000000E+00  0.00000000000E+00  0.45593999997E+02  0.45594000000E+02  0.51100000000E-03 0.  1.
         11   -1    0    0    0    0 -0.00000000000E+00 -0.00000000000E+00 -0.45593999997E+02  0.45594000000E+02  0.51100000000E-03 0. -1.
    9900012    2    1    2    0    0  0.35419344004E+02 -0.13738454003E+02  0.14487605124E+02  0.50528858958E+02  0.29999997288E+02 0.  0.
         12    1    1    2    0    0 -0.35419344004E+02  0.13738454003E+02 -0.14487605124E+02  0.40659141042E+02  0.00000000000E+00 0. -1.
         11    1    3    3    0    0  0.10119192031E+02 -0.36623509177E+01 -0.37320403087E+01  0.11390302311E+02  0.51100000000E-03 0. -1.
        -11    1    3    3    0    0  0.79251111571E+01  0.65233077503E+01  0.80530927427E+01  0.13046579392E+02  0.51100000000E-03 0.  1.
        -12    1    3    3    0    0  0.17375040815E+02 -0.16599410835E+02  0.10166552690E+02  0.26091977254E+02  0.00000000000E+00 0.  1.
</event>
<event>
 7    1  0.5972636E-013  0.5052886E+02  0.7816164E-02  0.1300439E+00
        -11   -1    0    0    0    0  0.00000000000E+00  0.00000000000E+00  0.45593999997E+02  0.45594000000E+02  0.51100000000E-03 0.  1.
         11   -1    0    0    0    0 -0.00000000000E+00 -0.00000000000E+00 -0.45593999997E+02  0.45594000000E+02  0.51100000000E-03 0. -1.
    9900012    2    1    2    0    0  0.15269360253E+02  0.36074341343E+02  0.10892854830E+02  0.50528858935E+02  0.29999997218E+02 0.  0.
         12    1    1    2    0    0 -0.15269360253E+02 -0.36074341343E+02 -0.10892854830E+02  0.40659141065E+02  0.00000000000E+00 0. -1.
         11    1    3    3    0    0  0.20724202179E+02  0.19830824920E+02  0.11230509779E+02  0.30803871885E+02  0.51100000000E-03 0.  1.
        -11    1    3    3    0    0 -0.42092058822E+01  0.61157238685E+01 -0.45256544535E+01  0.86948859158E+01  0.51100000000E-03 0. -1.
        -12    1    3    3    0    0 -0.12456360436E+01  0.10127792554E+02  0.41879995041E+01  0.11030101134E+02  0.00000000000E+00 0.  1.
</event>
<event>
 7    1  0.5972636E-013  0.5052889E+02  0.7816164E-02  0.1300439E+00
        -11   -1    0    0    0    0  0.00000000000E+00  0.00000000000E+00  0.45593999997E+02  0.45594000000E+02  0.51100000000E-03 0.  1.
         11   -1    0    0    0    0 -0.00000000000E+00 -0.00000000000E+00 -0.45593999997E+02  0.45594000000E+02  0.51100000000E-03 0. -1.
    9900012    2    1    2    0    0 -0.22967855229E+02 -0.33521111890E+02  0.14056037957E+01  0.50528892309E+02  0.30000098663E+02 0.  0.
         12    1    1    2    0    0  0.22967855229E+02  0.33521111890E+02 -0.14056037957E+01  0.40659107691E+02  0.00000000000E+00 0. -1.
         11    1    3    3    0    0 -0.26669322289E+02 -0.18003651167E+02  0.72104824341E+01  0.32975373597E+02  0.51100000000E-03 0. -1.
        -11    1    3    3    0    0  0.10976497529E+01 -0.11961752332E+02 -0.52586366179E+01  0.13112650883E+02  0.51100000000E-03 0.  1.
         12    1    3    3    0    0  0.26038173071E+01 -0.35557083906E+01 -0.54624202055E+00  0.44408678288E+01  0.00000000000E+00 0. -1.
</event>
<event>
 7    1  0.5972636E-013  0.5052886E+02  0.7816164E-02  0.1300439E+00
        -11   -1    0    0    0    0  0.00000000000E+00  0.00000000000E+00  0.45593999997E+02  0.45594000000E+02  0.51100000000E-03 0.  1.
         11   -1    0    0    0    0 -0.00000000000E+00 -0.00000000000E+00 -0.45593999997E+02  0.45594000000E+02  0.51100000000E-03 0. -1.
    9900012    2    1    2    0    0  0.33966237661E+02  0.19976474314E+02  0.10020022151E+02  0.50528859936E+02  0.30000000260E+02 0.  0.
         12    1    1    2    0    0 -0.33966237661E+02 -0.19976474314E+02 -0.10020022151E+02  0.40659140064E+02  0.00000000000E+00 0. -1.
         11    1    3    3    0    0  0.28365695963E+02  0.22702802265E+01  0.54587191453E+01  0.28975239338E+02  0.51100000000E-03 0. -1.
        -11    1    3    3    0    0  0.77548071361E+01  0.17171146462E+02  0.39402318976E+01  0.19248655335E+02  0.51100000000E-03 0.  1.
        -12    1    3    3    0    0 -0.21542654377E+01  0.53504762518E+00  0.62107110804E+00  0.23049652619E+01  0.00000000000E+00 0.  1.
</event>
<event>
 7    1  0.5972636E-013  0.5052888E+02  0.7816164E-02  0.1300439E+00
        -11   -1    0    0    0    0  0.00000000000E+00  0.00000000000E+00  0.45593999997E+02  0.45594000000E+02  0.51100000000E-03 0. -1.
         11   -1    0    0    0    0 -0.00000000000E+00 -0.00000000000E+00 -0.45593999997E+02  0.45594000000E+02  0.51100000000E-03 0.  1.
    9900012    2    1    2    0    0  0.18148342536E+02  0.33649325028E+02 -0.13839248751E+02  0.50528877806E+02  0.30000054579E+02 0.  0.
         12    1    1    2    0    0 -0.18148342536E+02 -0.33649325028E+02  0.13839248751E+02  0.40659122194E+02  0.00000000000E+00 0. -1.
         11    1    3    3    0    0 -0.41155143077E+01  0.43941530697E+01 -0.68927799564E+01  0.91518552767E+01  0.51100000000E-03 0. -1.
        -11    1    3    3    0    0  0.20920397252E+02  0.23637014478E+02  0.96620441650E+00  0.31580136571E+02  0.51100000000E-03 0.  1.
        -12    1    3    3    0    0  0.13434595920E+01  0.56181574802E+01 -0.79126732107E+01  0.97968859586E+01  0.00000000000E+00 0.  1.
</event>
<event>
 7    1  0.5972636E-013  0.5052885E+02  0.7816164E-02  0.1300439E+00
        -11   -1    0    0    0    0  0.00000000000E+00  0.00000000000E+00  0.45593999997E+02  0.45594000000E+02  0.51100000000E-03 0.  1.
         11   -1    0    0    0    0 -0.00000000000E+00 -0.00000000000E+00 -0.45593999997E+02  0.45594000000E+02  0.51100000000E-03 0. -1.
    9900012    2    1    2    0    0 -0.17248576546E+02 -0.34429513597E+02 -0.13048436517E+02  0.50528849801E+02  0.29999969456E+02 0.  0.
         12    1    1    2    0    0  0.17248576546E+02  0.34429513597E+02  0.13048436517E+02  0.40659150199E+02  0.00000000000E+00 0. -1.
         11    1    3    3    0    0 -0.75980139406E+01  0.34272931045E+01 -0.75843672168E+00  0.83696702676E+01  0.51100000000E-03 0. -1.
        -11    1    3    3    0    0 -0.87279907233E+01 -0.28282044714E+02 -0.13373465409E+02  0.32479246490E+02  0.51100000000E-03 0.  1.
         12    1    3    3    0    0 -0.92257188185E+00 -0.95747619873E+01  0.10834656136E+01  0.96799330435E+01  0.00000000000E+00 0. -1.
</event>
<event>
 7    1  0.5972636E-013  0.5052886E+02  0.7816164E-02  0.1300439E+00
        -11   -1    0    0    0    0  0.00000000000E+00  0.00000000000E+00  0.45593999997E+02  0.45594000000E+02  0.51100000000E-03 0.  1.
         11   -1    0    0    0    0 -0.00000000000E+00 -0.00000000000E+00 -0.45593999997E+02  0.45594000000E+02  0.51100000000E-03 0. -1.
    9900012    2    1    2    0    0 -0.18006400565E+02 -0.31829768866E+02 -0.17770793237E+02  0.50528859089E+02  0.29999997686E+02 0.  0.
         12    1    1    2    0    0  0.18006400565E+02  0.31829768866E+02  0.17770793237E+02  0.40659140911E+02  0.00000000000E+00 0. -1.
         11    1    3    3    0    0 -0.98189503910E+01 -0.26772923773E+02 -0.23126871537E+02  0.36715847007E+02  0.51100000000E-03 0. -1.
        -11    1    3    3    0    0 -0.72956217850E+01  0.26473725404E+00  0.25636976378E+01  0.77374885384E+01  0.51100000000E-03 0.  1.
         12    1    3    3    0    0 -0.89182838910E+00 -0.53215823474E+01  0.27923806621E+01  0.60755235427E+01  0.00000000000E+00 0. -1.
</event>
<event>
 7    1  0.5972636E-013  0.5052884E+02  0.7816164E-02  0.1300439E+00
        -11   -1    0    0    0    0  0.00000000000E+00  0.00000000000E+00  0.45593999997E+02  0.45594000000E+02  0.51100000000E-03 0.  1.
         11   -1    0    0    0    0 -0.00000000000E+00 -0.00000000000E+00 -0.45593999997E+02  0.45594000000E+02  0.51100000000E-03 0. -1.
    9900012    2    1    2    0    0 -0.15793245362E+02  0.20088635533E+02 -0.31625745702E+02  0.50528835377E+02  0.29999925612E+02 0.  0.
         12    1    1    2    0    0  0.15793245362E+02 -0.20088635533E+02  0.31625745702E+02  0.40659164623E+02  0.00000000000E+00 0. -1.
         11    1    3    3    0    0 -0.97134011528E+01  0.17712745511E+02 -0.24966798702E+02  0.32115923670E+02  0.51100000000E-03 0. -1.
        -11    1    3    3    0    0 -0.81411149963E+01 -0.49084373946E+01 -0.27677583729E+01  0.99010604337E+01  0.51100000000E-03 0.  1.
         12    1    3    3    0    0  0.20612707871E+01  0.72843274166E+01 -0.38911886271E+01  0.85118512735E+01  0.00000000000E+00 0. -1.
</event>
<event>
 7    1  0.5972636E-013  0.5052886E+02  0.7816164E-02  0.1300439E+00
        -11   -1    0    0    0    0  0.00000000000E+00  0.00000000000E+00  0.45593999997E+02  0.45594000000E+02  0.51100000000E-03 0.  1.
         11   -1    0    0    0    0 -0.00000000000E+00 -0.00000000000E+00 -0.45593999997E+02  0.45594000000E+02  0.51100000000E-03 0. -1.
    9900012    2    1    2    0    0  0.71605500881E+01 -0.36312880523E+01  0.39858573822E+02  0.50528860344E+02  0.30000001500E+02 0.  0.
         12    1    1    2    0    0 -0.71605500881E+01  0.36312880523E+01 -0.39858573822E+02  0.40659139656E+02  0.00000000000E+00 0. -1.
         11    1    3    3    0    0 -0.10703469691E+01 -0.14393739164E+02  0.21710740251E+02  0.26070704100E+02  0.51100000000E-03 0. -1.
        -11    1    3    3    0    0  0.99623522812E+00  0.72914135824E+01  0.12957841541E+02  0.14901773529E+02  0.51100000000E-03 0.  1.
         12    1    3    3    0    0  0.72346618291E+01  0.34710375295E+01  0.51899920304E+01  0.95563827147E+01  0.00000000000E+00 0. -1.
</event>
<event>
 7    1  0.5972636E-013  0.5052885E+02  0.7816164E-02  0.1300439E+00
        -11   -1    0    0    0    0  0.00000000000E+00  0.00000000000E+00  0.45593999997E+02  0.45594000000E+02  0.51100000000E-03 0. -1.
         11   -1    0    0    0    0 -0.00000000000E+00 -0.00000000000E+00 -0.45593999997E+02  0.45594000000E+02  0.51100000000E-03 0.  1.
    9900012    2    1    2    0    0 -0.94399614597E+01  0.11733399809E+02 -0.37767458775E+02  0.50528849913E+02  0.29999969797E+02 0.  0.
         12    1    1    2    0    0  0.94399614597E+01 -0.11733399809E+02  0.37767458775E+02  0.40659150087E+02  0.00000000000E+00 0. -1.
         11    1    3    3    0    0 -0.48099883460E+01  0.87033460047E+01 -0.29961445324E+02  0.31568535375E+02  0.51100000000E-03 0.  1.
        -11    1    3    3    0    0 -0.72671518922E+01 -0.48795043970E+01 -0.26019381683E+01  0.91318750691E+01  0.51100000000E-03 0. -1.
         12    1    3    3    0    0  0.26371787785E+01  0.79095582011E+01 -0.52040752825E+01  0.98284394689E+01  0.00000000000E+00 0. -1.
</event>
<event>
 7    1  0.5972636E-013  0.5052886E+02  0.7816164E-02  0.1300439E+00
        -11   -1    0    0    0    0  0.00000000000E+00  0.00000000000E+00  0.45593999997E+02  0.45594000000E+02  0.51100000000E-03 0.  1.
         11   -1    0    0    0    0 -0.00000000000E+00 -0.00000000000E+00 -0.45593999997E+02  0.45594000000E+02  0.51100000000E-03 0. -1.
    9900012    2    1    2    0    0  0.55960341952E+01  0.15582909664E+02  0.37135193742E+02  0.50528864660E+02  0.30000014620E+02 0.  0.
         12    1    1    2    0    0 -0.55960341952E+01 -0.15582909664E+02 -0.37135193742E+02  0.40659135340E+02  0.00000000000E+00 0. -1.
         11    1    3    3    0    0  0.57050925187E+01  0.96903004184E+01  0.31645783357E+01  0.11681804619E+02  0.51100000000E-03 0. -1.
        -11    1    3    3    0    0 -0.60126554767E+01 -0.25385141349E+01  0.53732245738E+01  0.84538525227E+01  0.51100000000E-03 0.  1.
        -12    1    3    3    0    0  0.59035971532E+01  0.84311233806E+01  0.28597390833E+02  0.30393207519E+02  0.00000000000E+00 0.  1.
</event>
<event>
 7    1  0.5972636E-013  0.5052884E+02  0.7816164E-02  0.1300439E+00
        -11   -1    0    0    0    0  0.00000000000E+00  0.00000000000E+00  0.45593999997E+02  0.45594000000E+02  0.51100000000E-03 0.  1.
         11   -1    0    0    0    0 -0.00000000000E+00 -0.00000000000E+00 -0.45593999997E+02  0.45594000000E+02  0.51100000000E-03 0. -1.
    9900012    2    1    2    0    0 -0.20663365833E+02 -0.34512859038E+02 -0.59207152751E+01  0.50528843640E+02  0.29999950728E+02 0.  0.
         12    1    1    2    0    0  0.20663365833E+02  0.34512859038E+02  0.59207152751E+01  0.40659156360E+02  0.00000000000E+00 0. -1.
         11    1    3    3    0    0 -0.54229135402E+01 -0.25399151661E+02  0.81730529854E+01  0.27227260085E+02  0.51100000000E-03 0. -1.
        -11    1    3    3    0    0 -0.16123848448E+01 -0.26483183395E+01 -0.81582321379E+00  0.32060790215E+01  0.51100000000E-03 0.  1.
         12    1    3    3    0    0 -0.13628067448E+02 -0.64653890374E+01 -0.13277945047E+02  0.20095504533E+02  0.00000000000E+00 0. -1.
</event>
<event>
 7    1  0.5972636E-013  0.5052884E+02  0.7816164E-02  0.1300439E+00
        -11   -1    0    0    0    0  0.00000000000E+00  0.00000000000E+00  0.45593999997E+02  0.45594000000E+02  0.51100000000E-03 0.  1.
         11   -1    0    0    0    0 -0.00000000000E+00 -0.00000000000E+00 -0.45593999997E+02  0.45594000000E+02  0.51100000000E-03 0. -1.
    9900012    2    1    2    0    0  0.39569608328E+02  0.60246251240E+01 -0.71496582812E+01  0.50528835908E+02  0.29999927225E+02 0.  0.
         12    1    1    2    0    0 -0.39569608328E+02 -0.60246251240E+01  0.71496582812E+01  0.40659164092E+02  0.00000000000E+00 0. -1.
         11    1    3    3    0    0  0.18431880991E+02 -0.42587843667E+00 -0.64080676453E+01  0.19518681834E+02  0.51100000000E-03 0. -1.
        -11    1    3    3    0    0  0.11845199538E+02  0.12274861334E+02  0.60630913836E+01  0.18103647430E+02  0.51100000000E-03 0.  1.
        -12    1    3    3    0    0  0.92925277988E+01 -0.58243577736E+01 -0.68046820194E+01  0.12906506644E+02  0.00000000000E+00 0.  1.
</event>
<event>
 7    1  0.5972636E-013  0.5052879E+02  0.7816164E-02  0.1300439E+00
        -11   -1    0    0    0    0  0.00000000000E+00  0.00000000000E+00  0.45593999997E+02  0.45594000000E+02  0.51100000000E-03 0.  1.
         11   -1    0    0    0    0 -0.00000000000E+00 -0.00000000000E+00 -0.45593999997E+02  0.45594000000E+02  0.51100000000E-03 0. -1.
    9900012    2    1    2    0    0 -0.23825222839E+02 -0.12355178760E+01  0.32924206453E+02  0.50528792945E+02  0.29999796635E+02 0.  0.
         12    1    1    2    0    0  0.23825222839E+02  0.12355178760E+01 -0.32924206453E+02  0.40659207055E+02  0.00000000000E+00 0. -1.
         11    1    3    3    0    0 -0.15943000355E+02  0.34555712493E+01  0.42419374855E+01  0.16855689451E+02  0.51100000000E-03 0. -1.
        -11    1    3    3    0    0 -0.40781568162E+01 -0.11398040122E+01  0.28121921076E+02  0.28438933902E+02  0.51100000000E-03 0.  1.
         12    1    3    3    0    0 -0.38040656684E+01 -0.35512851131E+01  0.56034789144E+00  0.52341695926E+01  0.00000000000E+00 0. -1.
</event>
<event>
 7    1  0.5972636E-013  0.5052887E+02  0.7816164E-02  0.1300439E+00
        -11   -1    0    0    0    0  0.00000000000E+00  0.00000000000E+00  0.45593999997E+02  0.45594000000E+02  0.51100000000E-03 0.  1.
         11   -1    0    0    0    0 -0.00000000000E+00 -0.00000000000E+00 -0.45593999997E+02  0.45594000000E+02  0.51100000000E-03 0. -1.
    9900012    2    1    2    0    0  0.14513476684E+02  0.15454683844E+02  0.34694046900E+02  0.50528866359E+02  0.30000019785E+02 0.  0.
         12    1    1    2    0    0 -0.14513476684E+02 -0.15454683844E+02 -0.34694046900E+02  0.40659133641E+02  0.00000000000E+00 0. -1.
         11    1    3    3    0    0 -0.67197745270E+00  0.17915494570E+02  0.22367345584E+02  0.28665565547E+02  0.51100000000E-03 0. -1.
        -11    1    3    3    0    0  0.91899421031E+01  0.78567859895E+00  0.11866810400E+02  0.15029754358E+02  0.51100000000E-03 0.  1.
         12    1    3    3    0    0  0.59955120339E+01 -0.32464893259E+01  0.45989091601E+00  0.68335464545E+01  0.00000000000E+00 0. -1.
</event>
<event>
 7    1  0.5972636E-013  0.5052886E+02  0.7816164E-02  0.1300439E+00
        -11   -1    0    0    0    0  0.00000000000E+00  0.00000000000E+00  0.45593999997E+02  0.45594000000E+02  0.51100000000E-03 0.  1.
         11   -1    0    0    0    0 -0.00000000000E+00 -0.00000000000E+00 -0.45593999997E+02  0.45594000000E+02  0.51100000000E-03 0. -1.
    9900012    2    1    2    0    0  0.34021579482E+02 -0.15466155419E+02  0.16015492299E+02  0.50528858009E+02  0.29999994403E+02 0.  0.
         12    1    1    2    0    0 -0.34021579482E+02  0.15466155419E+02 -0.16015492299E+02  0.40659141991E+02  0.00000000000E+00 0. -1.
         11    1    3    3    0    0  0.21324786995E+02 -0.10741438017E+02 -0.52101571164E+01  0.24439123726E+02  0.51100000000E-03 0. -1.
        -11    1    3    3    0    0  0.11110350182E+02 -0.12847955047E+01  0.17553831486E+02  0.20814119745E+02  0.51100000000E-03 0.  1.
         12    1    3    3    0    0  0.15864423056E+01 -0.34399218974E+01  0.36718179285E+01  0.52756145376E+01  0.00000000000E+00 0. -1.
</event>
<event>
 7    1  0.5972636E-013  0.5052886E+02  0.7816164E-02  0.1300439E+00
        -11   -1    0    0    0    0  0.00000000000E+00  0.00000000000E+00  0.45593999997E+02  0.45594000000E+02  0.51100000000E-03 0.  1.
         11   -1    0    0    0    0 -0.00000000000E+00 -0.00000000000E+00 -0.45593999997E+02  0.45594000000E+02  0.51100000000E-03 0. -1.
    9900012    2    1    2    0    0 -0.11090960243E+02  0.36891125636E+02  0.13007742850E+02  0.50528856823E+02  0.29999990800E+02 0.  0.
         12    1    1    2    0    0  0.11090960243E+02 -0.36891125636E+02 -0.13007742850E+02  0.40659143177E+02  0.00000000000E+00 0. -1.
         11    1    3    3    0    0  0.44656725996E+01  0.28182421718E+02  0.44510164478E+01  0.28879104442E+02  0.51100000000E-03 0. -1.
        -11    1    3    3    0    0 -0.11247743852E+02  0.17845463159E+01  0.29861305091E+01  0.11773415944E+02  0.51100000000E-03 0.  1.
        -12    1    3    3    0    0 -0.43088889909E+01  0.69241576018E+01  0.55705958935E+01  0.98763364381E+01  0.00000000000E+00 0.  1.
</event>
<event>
 7    1  0.5972636E-013  0.5052889E+02  0.7816164E-02  0.1300439E+00
        -11   -1    0    0    0    0  0.00000000000E+00  0.00000000000E+00  0.45593999997E+02  0.45594000000E+02  0.51100000000E-03 0. -1.
         11   -1    0    0    0    0 -0.00000000000E+00 -0.00000000000E+00 -0.45593999997E+02  0.45594000000E+02  0.51100000000E-03 0.  1.
    9900012    2    1    2    0    0 -0.22481222933E+02 -0.15096733815E+02 -0.30328972675E+02  0.50528888598E+02  0.30000087383E+02 0.  0.
         12    1    1    2    0    0  0.22481222933E+02  0.15096733815E+02  0.30328972675E+02  0.40659111402E+02  0.00000000000E+00 0. -1.
         11    1    3    3    0    0 -0.74633822783E+01  0.68515318276E+01 -0.79916896558E+01  0.12903978737E+02  0.51100000000E-03 0. -1.
        -11    1    3    3    0    0 -0.16676875901E+02 -0.22205398559E+02 -0.22746294714E+02  0.35896961410E+02  0.51100000000E-03 0.  1.
         12    1    3    3    0    0  0.16590352465E+01  0.25713291650E+00  0.40901169449E+00  0.17279484518E+01  0.00000000000E+00 0. -1.
</event>
<event>
 7    1  0.5972636E-013  0.5052885E+02  0.7816164E-02  0.1300439E+00
        -11   -1    0    0    0    0  0.00000000000E+00  0.00000000000E+00  0.45593999997E+02  0.45594000000E+02  0.51100000000E-03 0.  1.
         11   -1    0    0    0    0 -0.00000000000E+00 -0.00000000000E+00 -0.45593999997E+02  0.45594000000E+02  0.51100000000E-03 0. -1.
    9900012    2    1    2    0    0  0.34271218333E+02  0.32733177704E+01  0.21631808168E+02  0.50528854167E+02  0.29999982727E+02 0.  0.
         12    1    1    2    0    0 -0.34271218333E+02 -0.32733177704E+01 -0.21631808168E+02  0.40659145833E+02  0.00000000000E+00 0. -1.
         11    1    3    3    0    0  0.65863747652E+01  0.83101137209E+01 -0.21312834516E+01  0.10815761278E+02  0.51100000000E-03 0. -1.
        -11    1    3    3    0    0  0.28148820514E+02 -0.42115919038E+01  0.25184925660E+02  0.38004921832E+02  0.51100000000E-03 0.  1.
         12    1    3    3    0    0 -0.46397694654E+00 -0.82520404677E+00 -0.14218340402E+01  0.17081710580E+01  0.00000000000E+00 0. -1.
</event>
<event>
 7    1  0.5972636E-013  0.5052887E+02  0.7816164E-02  0.1300439E+00
        -11   -1    0    0    0    0  0.00000000000E+00  0.00000000000E+00  0.45593999997E+02  0.45594000000E+02  0.51100000000E-03 0.  1.
         11   -1    0    0    0    0 -0.00000000000E+00 -0.00000000000E+00 -0.45593999997E+02  0.45594000000E+02  0.51100000000E-03 0. -1.
    9900012    2    1    2    0    0  0.16315599143E+02 -0.54601826694E+01  0.36839554195E+02  0.50528866666E+02  0.30000020718E+02 0.  0.
         12    1    1    2    0    0 -0.16315599143E+02  0.54601826694E+01 -0.36839554195E+02  0.40659133334E+02  0.00000000000E+00 0. -1.
         11    1    3    3    0    0  0.48020294623E+01  0.22154830935E+01 -0.73667820668E+00  0.53395268831E+01  0.51100000000E-03 0. -1.
        -11    1    3    3    0    0  0.96661381849E+01 -0.14329901948E+02  0.20783889353E+02  0.27032394902E+02  0.51100000000E-03 0.  1.
        -12    1    3    3    0    0  0.18474314961E+01  0.66542361849E+01  0.16792343049E+02  0.18156944881E+02  0.00000000000E+00 0.  1.
</event>
<event>
 7    1  0.5972636E-013  0.5052885E+02  0.7816164E-02  0.1300439E+00
        -11   -1    0    0    0    0  0.00000000000E+00  0.00000000000E+00  0.45593999997E+02  0.45594000000E+02  0.51100000000E-03 0.  1.
         11   -1    0    0    0    0 -0.00000000000E+00 -0.00000000000E+00 -0.45593999997E+02  0.45594000000E+02  0.51100000000E-03 0. -1.
    9900012    2    1    2    0    0  0.35629799842E+02  0.10105972674E+02  0.16779539066E+02  0.50528852791E+02  0.29999978543E+02 0.  0.
         12    1    1    2    0    0 -0.35629799842E+02 -0.10105972674E+02 -0.16779539066E+02  0.40659147209E+02  0.00000000000E+00 0. -1.
         11    1    3    3    0    0  0.86464580697E+01  0.51469976545E+01 -0.60140636381E+01  0.11722703771E+02  0.51100000000E-03 0. -1.
        -11    1    3    3    0    0  0.24090210159E+02 -0.16493421519E+01  0.16647981029E+02  0.29329402101E+02  0.51100000000E-03 0.  1.
        -12    1    3    3    0    0  0.28931316140E+01  0.66083171717E+01  0.61456216752E+01  0.94767469182E+01  0.00000000000E+00 0.  1.
</event>
<event>
 7    1  0.5972636E-013  0.5052886E+02  0.7816164E-02  0.1300439E+00
        -11   -1    0    0    0    0  0.00000000000E+00  0.00000000000E+00  0.45593999997E+02  0.45594000000E+02  0.51100000000E-03 0.  1.
         11   -1    0    0    0    0 -0.00000000000E+00 -0.00000000000E+00 -0.45593999997E+02  0.45594000000E+02  0.51100000000E-03 0. -1.
    9900012    2    1    2    0    0 -0.32029700082E+02  0.10522471581E+02  0.22727558177E+02  0.50528855934E+02  0.29999988096E+02 0.  0.
         12    1    1    2    0    0  0.32029700082E+02 -0.10522471581E+02 -0.22727558177E+02  0.40659144066E+02  0.00000000000E+00 0. -1.
         11    1    3    3    0    0 -0.17862401388E+02 -0.41793956487E+01  0.12830437720E+02  0.22386443748E+02  0.51100000000E-03 0. -1.
        -11    1    3    3    0    0 -0.57863221978E+01  0.10169889846E+02  0.13581817183E+02  0.17926905542E+02  0.51100000000E-03 0.  1.
        -12    1    3    3    0    0 -0.83809764960E+01  0.45319773841E+01 -0.36846967254E+01  0.10215506644E+02  0.00000000000E+00 0.  1.
</event>
<event>
 7    1  0.5972636E-013  0.5052885E+02  0.7816164E-02  0.1300439E+00
        -11   -1    0    0    0    0  0.00000000000E+00  0.00000000000E+00  0.45593999997E+02  0.45594000000E+02  0.51100000000E-03 0. -1.
         11   -1    0    0    0    0 -0.00000000000E+00 -0.00000000000E+00 -0.45593999997E+02  0.45594000000E+02  0.51100000000E-03 0.  1.
    9900012    2    1    2    0    0  0.76114919210E+01  0.39869990449E+02 -0.23697649157E+01  0.50528846868E+02  0.29999960539E+02 0.  0.
         12    1    1    2    0    0 -0.76114919210E+01 -0.39869990449E+02  0.23697649157E+01  0.40659153132E+02  0.00000000000E+00 0. -1.
         11    1    3    3    0    0 -0.92685929524E+01  0.42239399900E+01 -0.28278255621E+01  0.10570954641E+02  0.51100000000E-03 0. -1.
        -11    1    3    3    0    0  0.83603062404E+01  0.23214908176E+02 -0.17035896210E+01  0.24733153861E+02  0.51100000000E-03 0.  1.
         12    1    3    3    0    0  0.85197786330E+01  0.12431142284E+02  0.21616502675E+01  0.15224738366E+02  0.00000000000E+00 0. -1.
</event>
<event>
 7    1  0.5972636E-013  0.5052885E+02  0.7816164E-02  0.1300439E+00
        -11   -1    0    0    0    0  0.00000000000E+00  0.00000000000E+00  0.45593999997E+02  0.45594000000E+02  0.51100000000E-03 0.  1.
         11   -1    0    0    0    0 -0.00000000000E+00 -0.00000000000E+00 -0.45593999997E+02  0.45594000000E+02  0.51100000000E-03 0. -1.
    9900012    2    1    2    0    0 -0.23277359904E+02 -0.27484248170E+02  0.18866549928E+02  0.50528854808E+02  0.29999984675E+02 0.  0.
         12    1    1    2    0    0  0.23277359904E+02  0.27484248170E+02 -0.18866549928E+02  0.40659145192E+02  0.00000000000E+00 0. -1.
         11    1    3    3    0    0 -0.10941420620E+01 -0.13128023809E+02 -0.21397179715E+01  0.13346181073E+02  0.51100000000E-03 0. -1.
        -11    1    3    3    0    0 -0.18395060118E+02 -0.17755677306E+02  0.16958339444E+02  0.30679432692E+02  0.51100000000E-03 0.  1.
         12    1    3    3    0    0 -0.37881577243E+01  0.33994529460E+01  0.40479284556E+01  0.65032410426E+01  0.00000000000E+00 0. -1.
</event>
<event>
 7    1  0.5972636E-013  0.5052886E+02  0.7816164E-02  0.1300439E+00
        -11   -1    0    0    0    0  0.00000000000E+00  0.00000000000E+00  0.45593999997E+02  0.45594000000E+02  0.51100000000E-03 0.  1.
         11   -1    0    0    0    0 -0.00000000000E+00 -0.00000000000E+00 -0.45593999997E+02  0.45594000000E+02  0.51100000000E-03 0. -1.
    9900012    2    1    2    0    0  0.36258986857E+02 -0.16806263768E+02 -0.74833578189E+01  0.50528864816E+02  0.30000015094E+02 0.  0.
         12    1    1    2    0    0 -0.36258986857E+02  0.16806263768E+02  0.74833578189E+01  0.40659135184E+02  0.00000000000E+00 0. -1.
         11    1    3    3    0    0 -0.48565562716E+01 -0.32468998998E+01 -0.28101322685E+01  0.64826955355E+01  0.51100000000E-03 0. -1.
        -11    1    3    3    0    0  0.17363529463E+02 -0.23869932643E+01 -0.11830150013E+01  0.17566713324E+02  0.51100000000E-03 0.  1.
         12    1    3    3    0    0  0.23752013665E+02 -0.11172370604E+02 -0.34902105491E+01  0.26479455956E+02  0.00000000000E+00 0. -1.
</event>
<event>
 7    1  0.5972636E-013  0.5052884E+02  0.7816164E-02  0.1300439E+00
        -11   -1    0    0    0    0  0.00000000000E+00  0.00000000000E+00  0.45593999997E+02  0.45594000000E+02  0.51100000000E-03 0.  1.
         11   -1    0    0    0    0 -0.00000000000E+00 -0.00000000000E+00 -0.45593999997E+02  0.45594000000E+02  0.51100000000E-03 0. -1.
    9900012    2    1    2    0    0 -0.10788814654E+02 -0.21668228949E+02  0.32668896606E+02  0.50528837774E+02  0.29999932898E+02 0.  0.
         12    1    1    2    0    0  0.10788814654E+02  0.21668228949E+02 -0.32668896606E+02  0.40659162226E+02  0.00000000000E+00 0. -1.
         11    1    3    3    0    0  0.31669240295E+01 -0.79484473619E+01  0.16462324389E+02  0.18553041471E+02  0.51100000000E-03 0.  1.
        -11    1    3    3    0    0 -0.64045080651E+01 -0.74505754330E+01 -0.31129555536E+01  0.10306274321E+02  0.51100000000E-03 0. -1.
        -12    1    3    3    0    0 -0.75512306183E+01 -0.62692061544E+01  0.19319527771E+02  0.21669521983E+02  0.00000000000E+00 0.  1.
</event>
<event>
 7    1  0.5972636E-013  0.5052886E+02  0.7816164E-02  0.1300439E+00
        -11   -1    0    0    0    0  0.00000000000E+00  0.00000000000E+00  0.45593999997E+02  0.45594000000E+02  0.51100000000E-03 0.  1.
         11   -1    0    0    0    0 -0.00000000000E+00 -0.00000000000E+00 -0.45593999997E+02  0.45594000000E+02  0.51100000000E-03 0. -1.
    9900012    2    1    2    0    0  0.32926533221E+02 -0.11118539308E+02  0.21104193949E+02  0.50528861931E+02  0.30000006324E+02 0.  0.
         12    1    1    2    0    0 -0.32926533221E+02  0.11118539308E+02 -0.21104193949E+02  0.40659138069E+02  0.00000000000E+00 0. -1.
         11    1    3    3    0    0 -0.86049009117E+00 -0.22004143580E+00  0.76921334480E+01  0.77432408379E+01  0.51100000000E-03 0. -1.
        -11    1    3    3    0    0  0.24393663185E+02 -0.16638971982E+02  0.11040055043E+02  0.31524419230E+02  0.51100000000E-03 0.  1.
        -12    1    3    3    0    0  0.93933601275E+01  0.57404741098E+01  0.23720054578E+01  0.11261201862E+02  0.00000000000E+00 0.  1.
</event>
<event>
 7    1  0.5972636E-013  0.5052890E+02  0.7816164E-02  0.1300439E+00
        -11   -1    0    0    0    0  0.00000000000E+00  0.00000000000E+00  0.45593999997E+02  0.45594000000E+02  0.51100000000E-03 0.  1.
         11   -1    0    0    0    0 -0.00000000000E+00 -0.00000000000E+00 -0.45593999997E+02  0.45594000000E+02  0.51100000000E-03 0. -1.
    9900012    2    1    2    0    0 -0.12293769233E+02  0.37400129666E+02  0.10161508060E+02  0.50528896382E+02  0.30000111041E+02 0.  0.
         12    1    1    2    0    0  0.12293769233E+02 -0.37400129666E+02 -0.10161508060E+02  0.40659103618E+02  0.00000000000E+00 0. -1.
         11    1    3    3    0    0  0.48392692321E-01  0.15841381750E+02  0.15277431638E+02  0.22007990260E+02  0.51100000000E-03 0. -1.
        -11    1    3    3    0    0 -0.82126958410E+01  0.15210727704E+02 -0.95464300846E+01  0.19747124801E+02  0.51100000000E-03 0.  1.
        -12    1    3    3    0    0 -0.41294660844E+01  0.63480202123E+01  0.44305065064E+01  0.87737813206E+01  0.00000000000E+00 0.  1.
</event>
<event>
 7    1  0.5972636E-013  0.5052886E+02  0.7816164E-02  0.1300439E+00
        -11   -1    0    0    0    0  0.00000000000E+00  0.00000000000E+00  0.45593999997E+02  0.45594000000E+02  0.51100000000E-03 0.  1.
         11   -1    0    0    0    0 -0.00000000000E+00 -0.00000000000E+00 -0.45593999997E+02  0.45594000000E+02  0.51100000000E-03 0. -1.
    9900012    2    1    2    0    0  0.15677872776E+02  0.30855896861E+02  0.21337370857E+02  0.50528862516E+02  0.30000008104E+02 0.  0.
         12    1    1    2    0    0 -0.15677872776E+02 -0.30855896861E+02 -0.21337370857E+02  0.40659137484E+02  0.00000000000E+00 0. -1.
         11    1    3    3    0    0  0.79805669904E+01  0.31317828625E+01  0.17261812909E+02  0.19273497310E+02  0.51100000000E-03 0. -1.
        -11    1    3    3    0    0  0.67564440727E+01  0.13324574174E+02  0.70534686044E+01  0.16521054235E+02  0.51100000000E-03 0.  1.
         12    1    3    3    0    0  0.94086171268E+00  0.14399539824E+02 -0.29779106569E+01  0.14734310971E+02  0.00000000000E+00 0. -1.
</event>
<event>
 7    1  0.5972636E-013  0.5052886E+02  0.7816164E-02  0.1300439E+00
        -11   -1    0    0    0    0  0.00000000000E+00  0.00000000000E+00  0.45593999997E+02  0.45594000000E+02  0.51100000000E-03 0.  1.
         11   -1    0    0    0    0 -0.00000000000E+00 -0.00000000000E+00 -0.45593999997E+02  0.45594000000E+02  0.51100000000E-03 0. -1.
    9900012    2    1    2    0    0 -0.20136924757E+02  0.11561773859E+02  0.33376563098E+02  0.50528864278E+02  0.30000013460E+02 0.  0.
         12    1    1    2    0    0  0.20136924757E+02 -0.11561773859E+02 -0.33376563098E+02  0.40659135722E+02  0.00000000000E+00 0. -1.
         11    1    3    3    0    0  0.43499344319E+01 -0.44549370192E+01  0.10211993343E+02  0.11960485011E+02  0.51100000000E-03 0. -1.
        -11    1    3    3    0    0 -0.12646116990E+02  0.85054733500E+01  0.59379054312E+01  0.16356224290E+02  0.51100000000E-03 0.  1.
         12    1    3    3    0    0 -0.11840742199E+02  0.75112375279E+01  0.17226664324E+02  0.22212154977E+02  0.00000000000E+00 0. -1.
</event>
<event>
 7    1  0.5972636E-013  0.5052887E+02  0.7816164E-02  0.1300439E+00
        -11   -1    0    0    0    0  0.00000000000E+00  0.00000000000E+00  0.45593999997E+02  0.45594000000E+02  0.51100000000E-03 0.  1.
         11   -1    0    0    0    0 -0.00000000000E+00 -0.00000000000E+00 -0.45593999997E+02  0.45594000000E+02  0.51100000000E-03 0. -1.
    9900012    2    1    2    0    0 -0.21571549825E+02  0.67414373401E+01  0.33799207184E+02  0.50528866395E+02  0.30000019893E+02 0.  0.
         12    1    1    2    0    0  0.21571549825E+02 -0.67414373401E+01 -0.33799207184E+02  0.40659133605E+02  0.00000000000E+00 0. -1.
         11    1    3    3    0    0 -0.57551620172E+01 -0.60228568339E+01  0.57013552335E+01  0.10094659283E+02  0.51100000000E-03 0. -1.
        -11    1    3    3    0    0  0.30939265660E+01  0.88973698256E+01  0.63714165372E+01  0.11372357731E+02  0.51100000000E-03 0.  1.
        -12    1    3    3    0    0 -0.18910314374E+02  0.38669243483E+01  0.21726435413E+02  0.29061849380E+02  0.00000000000E+00 0.  1.
</event>
<event>
 7    1  0.5972636E-013  0.5052885E+02  0.7816164E-02  0.1300439E+00
        -11   -1    0    0    0    0  0.00000000000E+00  0.00000000000E+00  0.45593999997E+02  0.45594000000E+02  0.51100000000E-03 0. -1.
         11   -1    0    0    0    0 -0.00000000000E+00 -0.00000000000E+00 -0.45593999997E+02  0.45594000000E+02  0.51100000000E-03 0.  1.
    9900012    2    1    2    0    0  0.11227041911E+01  0.40114950602E+02 -0.65342533400E+01  0.50528853511E+02  0.29999980732E+02 0.  0.
         12    1    1    2    0    0 -0.11227041911E+01 -0.40114950602E+02  0.65342533400E+01  0.40659146489E+02  0.00000000000E+00 0. -1.
         11    1    3    3    0    0 -0.12278929756E+00  0.96045593265E+01  0.11422801541E+02  0.14924578130E+02  0.51100000000E-03 0. -1.
        -11    1    3    3    0    0 -0.75619544360E+00  0.13223585204E+02 -0.91665093189E+01  0.16107759948E+02  0.51100000000E-03 0.  1.
         12    1    3    3    0    0  0.20016889323E+01  0.17286806071E+02 -0.87905455617E+01  0.19496515432E+02  0.00000000000E+00 0. -1.
</event>
<event>
 7    1  0.5972636E-013  0.5052885E+02  0.7816164E-02  0.1300439E+00
        -11   -1    0    0    0    0  0.00000000000E+00  0.00000000000E+00  0.45593999997E+02  0.45594000000E+02  0.51100000000E-03 0.  1.
         11   -1    0    0    0    0 -0.00000000000E+00 -0.00000000000E+00 -0.45593999997E+02  0.45594000000E+02  0.51100000000E-03 0. -1.
    9900012    2    1    2    0    0  0.24290916054E+02 -0.24689758171E+02  0.21296331933E+02  0.50528849553E+02  0.29999968701E+02 0.  0.
         12    1    1    2    0    0 -0.24290916054E+02  0.24689758171E+02 -0.21296331933E+02  0.40659150447E+02  0.00000000000E+00 0. -1.
         11    1    3    3    0    0  0.86855787578E+01  0.54106177621E+01  0.64765535196E+01  0.12110318273E+02  0.51100000000E-03 0. -1.
        -11    1    3    3    0    0  0.84177737861E+01 -0.10404133628E+02  0.12445679318E+01  0.13440753761E+02  0.51100000000E-03 0.  1.
         12    1    3    3    0    0  0.71875635103E+01 -0.19696242305E+02  0.13575210482E+02  0.24977777519E+02  0.00000000000E+00 0. -1.
</event>
<event>
 7    1  0.5972636E-013  0.5052894E+02  0.7816164E-02  0.1300438E+00
        -11   -1    0    0    0    0  0.00000000000E+00  0.00000000000E+00  0.45593999997E+02  0.45594000000E+02  0.51100000000E-03 0.  1.
         11   -1    0    0    0    0 -0.00000000000E+00 -0.00000000000E+00 -0.45593999997E+02  0.45594000000E+02  0.51100000000E-03 0. -1.
    9900012    2    1    2    0    0 -0.39753334403E+01 -0.30499480438E+02  0.26592053938E+02  0.50528943007E+02  0.30000252763E+02 0.  0.
         12    1    1    2    0    0  0.39753334403E+01  0.30499480438E+02 -0.26592053938E+02  0.40659056993E+02  0.00000000000E+00 0. -1.
         11    1    3    3    0    0  0.22206499349E+01 -0.24975419181E+02  0.27114731724E+02  0.36931172823E+02  0.51100000000E-03 0. -1.
        -11    1    3    3    0    0  0.16306970080E+01 -0.20780951936E+01 -0.36383840903E+01  0.44961640779E+01  0.51100000000E-03 0.  1.
         12    1    3    3    0    0 -0.78266803832E+01 -0.34459660630E+01  0.31157063044E+01  0.91016061058E+01  0.00000000000E+00 0. -1.
</event>
<event>
 7    1  0.5972636E-013  0.5052885E+02  0.7816164E-02  0.1300439E+00
        -11   -1    0    0    0    0  0.00000000000E+00  0.00000000000E+00  0.45593999997E+02  0.45594000000E+02  0.51100000000E-03 0.  1.
         11   -1    0    0    0    0 -0.00000000000E+00 -0.00000000000E+00 -0.45593999997E+02  0.45594000000E+02  0.51100000000E-03 0. -1.
    9900012    2    1    2    0    0  0.39693831658E+02 -0.54537275176E+01 -0.69154056683E+01  0.50528852799E+02  0.29999978569E+02 0.  0.
         12    1    1    2    0    0 -0.39693831658E+02  0.54537275176E+01  0.69154056683E+01  0.40659147201E+02  0.00000000000E+00 0. -1.
         11    1    3    3    0    0  0.18449382378E+02 -0.86428142640E+01 -0.90489757946E+01  0.22292642547E+02  0.51100000000E-03 0. -1.
        -11    1    3    3    0    0  0.22818101820E+02  0.87679156150E+00  0.58619231194E+01  0.23575340443E+02  0.51100000000E-03 0.  1.
        -12    1    3    3    0    0 -0.15736525397E+01  0.23122951848E+01 -0.37283529932E+01  0.46608698093E+01  0.00000000000E+00 0.  1.
</event>
<event>
 7    1  0.5972636E-013  0.5052886E+02  0.7816164E-02  0.1300439E+00
        -11   -1    0    0    0    0  0.00000000000E+00  0.00000000000E+00  0.45593999997E+02  0.45594000000E+02  0.51100000000E-03 0.  1.
         11   -1    0    0    0    0 -0.00000000000E+00 -0.00000000000E+00 -0.45593999997E+02  0.45594000000E+02  0.51100000000E-03 0. -1.
    9900012    2    1    2    0    0 -0.27465328680E+02 -0.27838390729E+02 -0.11128592263E+02  0.50528857810E+02  0.29999993799E+02 0.  0.
         12    1    1    2    0    0  0.27465328680E+02  0.27838390729E+02  0.11128592263E+02  0.40659142190E+02  0.00000000000E+00 0. -1.
         11    1    3    3    0    0 -0.11334675867E+02  0.37167780805E+01  0.30286882354E+01  0.12307000813E+02  0.51100000000E-03 0. -1.
        -11    1    3    3    0    0 -0.87033831810E+01 -0.15469557185E+02 -0.79443361176E+01  0.19446556377E+02  0.51100000000E-03 0.  1.
         12    1    3    3    0    0 -0.74272696313E+01 -0.16085611624E+02 -0.62129443810E+01  0.18775300620E+02  0.00000000000E+00 0. -1.
</event>
<event>
 7    1  0.5972636E-013  0.5052886E+02  0.7816164E-02  0.1300439E+00
        -11   -1    0    0    0    0  0.00000000000E+00  0.00000000000E+00  0.45593999997E+02  0.45594000000E+02  0.51100000000E-03 0.  1.
         11   -1    0    0    0    0 -0.00000000000E+00 -0.00000000000E+00 -0.45593999997E+02  0.45594000000E+02  0.51100000000E-03 0. -1.
    9900012    2    1    2    0    0  0.14572800186E+02  0.28327050474E+02  0.25266129437E+02  0.50528860922E+02  0.30000003259E+02 0.  0.
         12    1    1    2    0    0 -0.14572800186E+02 -0.28327050474E+02 -0.25266129437E+02  0.40659139078E+02  0.00000000000E+00 0. -1.
         11    1    3    3    0    0  0.25391742375E+00  0.19674662335E+02  0.10485437076E+02  0.22295766481E+02  0.51100000000E-03 0. -1.
        -11    1    3    3    0    0  0.11506603743E+02 -0.30175042951E+01  0.57560278810E+01  0.13215109500E+02  0.51100000000E-03 0.  1.
        -12    1    3    3    0    0  0.28122790191E+01  0.11669892435E+02  0.90246644798E+01  0.15017984941E+02  0.00000000000E+00 0.  1.
</event>
<event>
 7    1  0.5972636E-013  0.5052886E+02  0.7816164E-02  0.1300439E+00
        -11   -1    0    0    0    0  0.00000000000E+00  0.00000000000E+00  0.45593999997E+02  0.45594000000E+02  0.51100000000E-03 0.  1.
         11   -1    0    0    0    0 -0.00000000000E+00 -0.00000000000E+00 -0.45593999997E+02  0.45594000000E+02  0.51100000000E-03 0. -1.
    9900012    2    1    2    0    0  0.91546554537E+01 -0.16570302692E+02  0.35983097510E+02  0.50528856450E+02  0.29999989665E+02 0.  0.
         12    1    1    2    0    0 -0.91546554537E+01  0.16570302692E+02 -0.35983097510E+02  0.40659143550E+02  0.00000000000E+00 0. -1.
         11    1    3    3    0    0 -0.43319839577E+01  0.15767927982E+01  0.69116730814E+01  0.83080434269E+01  0.51100000000E-03 0.  1.
        -11    1    3    3    0    0  0.14363088034E+02 -0.12129319419E+02  0.82509269809E+01  0.20530379532E+02  0.51100000000E-03 0. -1.
        -12    1    3    3    0    0 -0.87644862243E+00 -0.60177760720E+01  0.20820497448E+02  0.21690433491E+02  0.00000000000E+00 0.  1.
</event>
<event>
 7    1  0.5972636E-013  0.5052886E+02  0.7816164E-02  0.1300439E+00
        -11   -1    0    0    0    0  0.00000000000E+00  0.00000000000E+00  0.45593999997E+02  0.45594000000E+02  0.51100000000E-03 0. -1.
         11   -1    0    0    0    0 -0.00000000000E+00 -0.00000000000E+00 -0.45593999997E+02  0.45594000000E+02  0.51100000000E-03 0.  1.
    9900012    2    1    2    0    0  0.28431637400E+02 -0.25736555202E+02 -0.13506950252E+02  0.50528856084E+02  0.29999988552E+02 0.  0.
         12    1    1    2    0    0 -0.28431637400E+02  0.25736555202E+02  0.13506950252E+02  0.40659143916E+02  0.00000000000E+00 0. -1.
         11    1    3    3    0    0  0.88139379290E+01  0.38775906256E+00  0.24725649140E+01  0.91623925053E+01  0.51100000000E-03 0. -1.
        -11    1    3    3    0    0  0.19207711308E+02 -0.27884911537E+02 -0.10278569951E+02  0.35385780557E+02  0.51100000000E-03 0.  1.
        -12    1    3    3    0    0  0.40998816271E+00  0.17605972728E+01 -0.57009452155E+01  0.59806830213E+01  0.00000000000E+00 0.  1.
</event>
<event>
 7    1  0.5972636E-013  0.5052886E+02  0.7816164E-02  0.1300439E+00
        -11   -1    0    0    0    0  0.00000000000E+00  0.00000000000E+00  0.45593999997E+02  0.45594000000E+02  0.51100000000E-03 0.  1.
         11   -1    0    0    0    0 -0.00000000000E+00 -0.00000000000E+00 -0.45593999997E+02  0.45594000000E+02  0.51100000000E-03 0. -1.
    9900012    2    1    2    0    0 -0.45647786664E+01 -0.19763380563E+02  0.35238294270E+02  0.50528858364E+02  0.29999995482E+02 0.  0.
         12    1    1    2    0    0  0.45647786664E+01  0.19763380563E+02 -0.35238294270E+02  0.40659141636E+02  0.00000000000E+00 0. -1.
         11    1    3    3    0    0 -0.70950182163E+01 -0.20252349759E+01  0.91179749475E+01  0.11729378824E+02  0.51100000000E-03 0. -1.
        -11    1    3    3    0    0  0.11164020739E+02 -0.13445015141E+02  0.22523743565E+02  0.28508293804E+02  0.51100000000E-03 0.  1.
        -12    1    3    3    0    0 -0.86337811894E+01 -0.42931304462E+01  0.35965757576E+01  0.10291185735E+02  0.00000000000E+00 0.  1.
</event>
<event>
 7    1  0.5972636E-013  0.5052887E+02  0.7816164E-02  0.1300439E+00
        -11   -1    0    0    0    0  0.00000000000E+00  0.00000000000E+00  0.45593999997E+02  0.45594000000E+02  0.51100000000E-03 0.  1.
         11   -1    0    0    0    0 -0.00000000000E+00 -0.00000000000E+00 -0.45593999997E+02  0.45594000000E+02  0.51100000000E-03 0. -1.
    9900012    2    1    2    0    0  0.24513664813E+02  0.32278849019E+02  0.32126703817E+01  0.50528866862E+02  0.30000021314E+02 0.  0.
         12    1    1    2    0    0 -0.24513664813E+02 -0.32278849019E+02 -0.32126703817E+01  0.40659133138E+02  0.00000000000E+00 0. -1.
         11    1    3    3    0    0  0.54860308964E+01  0.65598276735E+01 -0.40879144592E+01  0.94783394637E+01  0.51100000000E-03 0. -1.
        -11    1    3    3    0    0  0.21320615920E+02  0.27275928115E+02  0.11092522323E+02  0.36353665145E+02  0.51100000000E-03 0.  1.
        -12    1    3    3    0    0 -0.22929820035E+01 -0.15569067692E+01 -0.37919374823E+01  0.46968622533E+01  0.00000000000E+00 0.  1.
</event>
<event>
 7    1  0.5972636E-013  0.5052887E+02  0.7816164E-02  0.1300439E+00
        -11   -1    0    0    0    0  0.00000000000E+00  0.00000000000E+00  0.45593999997E+02  0.45594000000E+02  0.51100000000E-03 0.  1.
         11   -1    0    0    0    0 -0.00000000000E+00 -0.00000000000E+00 -0.45593999997E+02  0.45594000000E+02  0.51100000000E-03 0. -1.
    9900012    2    1    2    0    0 -0.15374072713E+02 -0.35177038792E+02  0.13393234575E+02  0.50528869385E+02  0.30000028984E+02 0.  0.
         12    1    1    2    0    0  0.15374072713E+02  0.35177038792E+02 -0.13393234575E+02  0.40659130615E+02  0.00000000000E+00 0. -1.
         11    1    3    3    0    0 -0.29448535263E+01 -0.26166313165E+02 -0.10237018558E+01  0.26351396029E+02  0.51100000000E-03 0. -1.
        -11    1    3    3    0    0 -0.80699306057E+01 -0.11321655515E+02  0.78592773975E+01  0.15970970698E+02  0.51100000000E-03 0.  1.
         12    1    3    3    0    0 -0.43592885809E+01  0.23109298875E+01  0.65576590335E+01  0.82065026580E+01  0.00000000000E+00 0. -1.
</event>
<event>
 7    1  0.5972636E-013  0.5052887E+02  0.7816164E-02  0.1300439E+00
        -11   -1    0    0    0    0  0.00000000000E+00  0.00000000000E+00  0.45593999997E+02  0.45594000000E+02  0.51100000000E-03 0. -1.
         11   -1    0    0    0    0 -0.00000000000E+00 -0.00000000000E+00 -0.45593999997E+02  0.45594000000E+02  0.51100000000E-03 0.  1.
    9900012    2    1    2    0    0  0.39574069575E+02  0.44351438324E+01  0.82089986268E+01  0.50528866438E+02  0.30000020026E+02 0.  0.
         12    1    1    2    0    0 -0.39574069575E+02 -0.44351438324E+01 -0.82089986268E+01  0.40659133562E+02  0.00000000000E+00 0. -1.
         11    1    3    3    0    0  0.14091777241E+02 -0.20902693623E+01 -0.10495591895E+02  0.17694769320E+02  0.51100000000E-03 0. -1.
        -11    1    3    3    0    0  0.11856720672E+02 -0.44599824108E-01  0.84092623678E+01  0.14536144884E+02  0.51100000000E-03 0.  1.
         12    1    3    3    0    0  0.13625571662E+02  0.65700130189E+01  0.10295328154E+02  0.18297952234E+02  0.00000000000E+00 0. -1.
</event>
<event>
 7    1  0.5972636E-013  0.5052887E+02  0.7816164E-02  0.1300439E+00
        -11   -1    0    0    0    0  0.00000000000E+00  0.00000000000E+00  0.45593999997E+02  0.45594000000E+02  0.51100000000E-03 0. -1.
         11   -1    0    0    0    0 -0.00000000000E+00 -0.00000000000E+00 -0.45593999997E+02  0.45594000000E+02  0.51100000000E-03 0.  1.
    9900012    2    1    2    0    0  0.28430771728E+02 -0.14162476707E+01 -0.29031882651E+02  0.50528871274E+02  0.30000034724E+02 0.  0.
         12    1    1    2    0    0 -0.28430771728E+02  0.14162476707E+01  0.29031882651E+02  0.40659128726E+02  0.00000000000E+00 0. -1.
         11    1    3    3    0    0 -0.13062972205E+00  0.10793114700E+01 -0.21036562305E-01  0.10873914528E+01  0.51100000000E-03 0. -1.
        -11    1    3    3    0    0  0.64975337664E+01  0.41985109053E+00  0.54012024902E+01  0.84597404562E+01  0.51100000000E-03 0.  1.
        -12    1    3    3    0    0  0.22063867683E+02 -0.29154102312E+01 -0.34412048579E+02  0.40981739365E+02  0.00000000000E+00 0.  1.
</event>
<event>
 7    1  0.5972636E-013  0.5052886E+02  0.7816164E-02  0.1300439E+00
        -11   -1    0    0    0    0  0.00000000000E+00  0.00000000000E+00  0.45593999997E+02  0.45594000000E+02  0.51100000000E-03 0.  1.
         11   -1    0    0    0    0 -0.00000000000E+00 -0.00000000000E+00 -0.45593999997E+02  0.45594000000E+02  0.51100000000E-03 0. -1.
    9900012    2    1    2    0    0  0.12221840387E+02 -0.38000790086E+02  0.77286594718E+01  0.50528860722E+02  0.30000002650E+02 0.  0.
         12    1    1    2    0    0 -0.12221840387E+02  0.38000790086E+02 -0.77286594718E+01  0.40659139278E+02  0.00000000000E+00 0. -1.
         11    1    3    3    0    0  0.11779363822E+02 -0.34295315587E+02  0.10010080947E+02  0.37618131321E+02  0.51100000000E-03 0. -1.
        -11    1    3    3    0    0  0.29445944702E+01 -0.38874073860E+00  0.42409047296E+01  0.51775504964E+01  0.51100000000E-03 0.  1.
         12    1    3    3    0    0 -0.25021179051E+01 -0.33167337609E+01 -0.65223262046E+01  0.77331789046E+01  0.00000000000E+00 0. -1.
</event>
<event>
 7    1  0.5972636E-013  0.5052886E+02  0.7816164E-02  0.1300439E+00
        -11   -1    0    0    0    0  0.00000000000E+00  0.00000000000E+00  0.45593999997E+02  0.45594000000E+02  0.51100000000E-03 0.  1.
         11   -1    0    0    0    0 -0.00000000000E+00 -0.00000000000E+00 -0.45593999997E+02  0.45594000000E+02  0.51100000000E-03 0. -1.
    9900012    2    1    2    0    0 -0.69020937063E+01 -0.39888280052E+02 -0.38015210929E+01  0.50528863934E+02  0.30000012413E+02 0.  0.
         12    1    1    2    0    0  0.69020937063E+01  0.39888280052E+02  0.38015210929E+01  0.40659136066E+02  0.00000000000E+00 0. -1.
         11    1    3    3    0    0  0.74574882331E+01 -0.86981921863E-01 -0.25745577441E+01  0.78898697353E+01  0.51100000000E-03 0. -1.
        -11    1    3    3    0    0 -0.79108465476E+01 -0.25058966596E+02  0.14897712299E+01  0.26320196020E+02  0.51100000000E-03 0.  1.
         12    1    3    3    0    0 -0.64487353917E+01 -0.14742331535E+02 -0.27167345787E+01  0.16318798179E+02  0.00000000000E+00 0. -1.
</event>
<event>
 7    1  0.5972636E-013  0.5052886E+02  0.7816164E-02  0.1300439E+00
        -11   -1    0    0    0    0  0.00000000000E+00  0.00000000000E+00  0.45593999997E+02  0.45594000000E+02  0.51100000000E-03 0. -1.
         11   -1    0    0    0    0 -0.00000000000E+00 -0.00000000000E+00 -0.45593999997E+02  0.45594000000E+02  0.51100000000E-03 0.  1.
    9900012    2    1    2    0    0  0.20246576011E+02  0.18015814361E+02 -0.30309608882E+02  0.50528858373E+02  0.29999995511E+02 0.  0.
         12    1    1    2    0    0 -0.20246576011E+02 -0.18015814361E+02  0.30309608882E+02  0.40659141627E+02  0.00000000000E+00 0. -1.
         11    1    3    3    0    0  0.91786863713E+01  0.10322001981E+02  0.66204883900E+00  0.13828605039E+02  0.51100000000E-03 0. -1.
        -11    1    3    3    0    0  0.13364001339E+02  0.75916735627E+01 -0.30767447253E+02  0.34392816837E+02  0.51100000000E-03 0.  1.
         12    1    3    3    0    0 -0.22961116995E+01  0.10213881761E+00 -0.20421046833E+00  0.23074364975E+01  0.00000000000E+00 0. -1.
</event>
<event>
 7    1  0.5972636E-013  0.5052884E+02  0.7816164E-02  0.1300439E+00
        -11   -1    0    0    0    0  0.00000000000E+00  0.00000000000E+00  0.45593999997E+02  0.45594000000E+02  0.51100000000E-03 0.  1.
         11   -1    0    0    0    0 -0.00000000000E+00 -0.00000000000E+00 -0.45593999997E+02  0.45594000000E+02  0.51100000000E-03 0. -1.
    9900012    2    1    2    0    0  0.20860659532E+02 -0.26956359400E+02  0.22166520313E+02  0.50528842963E+02  0.29999948669E+02 0.  0.
         12    1    1    2    0    0 -0.20860659532E+02  0.26956359400E+02 -0.22166520313E+02  0.40659157037E+02  0.00000000000E+00 0. -1.
         11    1    3    3    0    0  0.72481108649E+01 -0.99485591623E+01 -0.36650431095E+01  0.12842954558E+02  0.51100000000E-03 0. -1.
        -11    1    3    3    0    0  0.16297221368E+01 -0.12826511224E+02  0.19766635260E+02  0.23619806396E+02  0.51100000000E-03 0.  1.
        -12    1    3    3    0    0  0.11982826530E+02 -0.41812890135E+01  0.60649281619E+01  0.14066082008E+02  0.00000000000E+00 0.  1.
</event>
<event>
 7    1  0.5972636E-013  0.5052885E+02  0.7816164E-02  0.1300439E+00
        -11   -1    0    0    0    0  0.00000000000E+00  0.00000000000E+00  0.45593999997E+02  0.45594000000E+02  0.51100000000E-03 0.  1.
         11   -1    0    0    0    0 -0.00000000000E+00 -0.00000000000E+00 -0.45593999997E+02  0.45594000000E+02  0.51100000000E-03 0. -1.
    9900012    2    1    2    0    0  0.24188707502E+02 -0.26353793860E+02  0.19327442961E+02  0.50528854991E+02  0.29999985232E+02 0.  0.
         12    1    1    2    0    0 -0.24188707502E+02  0.26353793860E+02 -0.19327442961E+02  0.40659145009E+02  0.00000000000E+00 0. -1.
         11    1    3    3    0    0  0.15218511041E+02 -0.22379021958E+02  0.24802673055E+02  0.36709621260E+02  0.51100000000E-03 0. -1.
        -11    1    3    3    0    0  0.62596268242E+01 -0.62463556945E+01 -0.24787185459E+01  0.91838953245E+01  0.51100000000E-03 0.  1.
         12    1    3    3    0    0  0.27105696367E+01  0.22715837931E+01 -0.29965115485E+01  0.46353384067E+01  0.00000000000E+00 0. -1.
</event>
<event>
 7    1  0.6088834E-013  0.5052883E+02  0.7816164E-02  0.1300439E+00
        -11   -1    0    0    0    0  0.00000000000E+00  0.00000000000E+00  0.45593999997E+02  0.45594000000E+02  0.51100000000E-03 0. -1.
         11   -1    0    0    0    0 -0.00000000000E+00 -0.00000000000E+00 -0.45593999997E+02  0.45594000000E+02  0.51100000000E-03 0.  1.
    9900012    2    1    2    0    0 -0.35387336586E+02 -0.19604407269E+02 -0.40707913519E+01  0.50528834769E+02  0.29999923765E+02 0.  0.
         12    1    1    2    0    0  0.35387336586E+02  0.19604407269E+02  0.40707913519E+01  0.40659165231E+02  0.00000000000E+00 0. -1.
         11    1    3    3    0    0  0.22601306186E+01  0.52549387455E+00 -0.30849031540E+01  0.38601764151E+01  0.51100000000E-03 0. -1.
        -11    1    3    3    0    0 -0.23156615677E+02 -0.54712448544E+01  0.66200876524E+01  0.24697953977E+02  0.51100000000E-03 0.  1.
        -12    1    3    3    0    0 -0.14490851528E+02 -0.14658656289E+02 -0.76059758503E+01  0.21970704377E+02  0.00000000000E+00 0.  1.
</event>
<event>
 7    1  0.5972636E-013  0.5052887E+02  0.7816164E-02  0.1300439E+00
        -11   -1    0    0    0    0  0.00000000000E+00  0.00000000000E+00  0.45593999997E+02  0.45594000000E+02  0.51100000000E-03 0.  1.
         11   -1    0    0    0    0 -0.00000000000E+00 -0.00000000000E+00 -0.45593999997E+02  0.45594000000E+02  0.51100000000E-03 0. -1.
    9900012    2    1    2    0    0  0.47187252441E+01  0.35810855452E+01  0.40225292021E+02  0.50528872368E+02  0.30000038049E+02 0.  0.
         12    1    1    2    0    0 -0.47187252441E+01 -0.35810855452E+01 -0.40225292021E+02  0.40659127632E+02  0.00000000000E+00 0. -1.
         11    1    3    3    0    0 -0.84925255964E+00  0.68187178516E+01 -0.81221155078E+00  0.69192362956E+01  0.51100000000E-03 0. -1.
        -11    1    3    3    0    0  0.79379869502E+01  0.20098153028E+01  0.16689192691E+02  0.18589786102E+02  0.51100000000E-03 0.  1.
         12    1    3    3    0    0 -0.23700091465E+01 -0.52474476091E+01  0.24348310881E+02  0.25019849970E+02  0.00000000000E+00 0. -1.
</event>
<event>
 7    1  0.5972636E-013  0.5052883E+02  0.7816164E-02  0.1300439E+00
        -11   -1    0    0    0    0  0.00000000000E+00  0.00000000000E+00  0.45593999997E+02  0.45594000000E+02  0.51100000000E-03 0.  1.
         11   -1    0    0    0    0 -0.00000000000E+00 -0.00000000000E+00 -0.45593999997E+02  0.45594000000E+02  0.51100000000E-03 0. -1.
    9900012    2    1    2    0    0 -0.28934530925E+02  0.28558545822E+02  0.60874286317E+00  0.50528828990E+02  0.29999906198E+02 0.  0.
         12    1    1    2    0    0  0.28934530925E+02 -0.28558545822E+02 -0.60874286317E+00  0.40659171010E+02  0.00000000000E+00 0. -1.
         11    1    3    3    0    0 -0.18726345580E+02  0.21306423448E+02 -0.57503766087E+01  0.28943160337E+02  0.51100000000E-03 0. -1.
        -11    1    3    3    0    0  0.34286685288E+01 -0.21636182905E+01  0.13635185237E+01  0.42774051729E+01  0.51100000000E-03 0.  1.
        -12    1    3    3    0    0 -0.13636853874E+02  0.94157406650E+01  0.49956009481E+01  0.17308263480E+02  0.00000000000E+00 0.  1.
</event>
<event>
 7    1  0.5972636E-013  0.5052886E+02  0.7816164E-02  0.1300439E+00
        -11   -1    0    0    0    0  0.00000000000E+00  0.00000000000E+00  0.45593999997E+02  0.45594000000E+02  0.51100000000E-03 0. -1.
         11   -1    0    0    0    0 -0.00000000000E+00 -0.00000000000E+00 -0.45593999997E+02  0.45594000000E+02  0.51100000000E-03 0.  1.
    9900012    2    1    2    0    0  0.17177912785E+02  0.22842404851E+02 -0.28919022897E+02  0.50528855489E+02  0.29999986746E+02 0.  0.
         12    1    1    2    0    0 -0.17177912785E+02 -0.22842404851E+02  0.28919022897E+02  0.40659144511E+02  0.00000000000E+00 0. -1.
         11    1    3    3    0    0 -0.20873331516E+01  0.71038297594E+01 -0.12105920765E+02  0.14190654487E+02  0.51100000000E-03 0.  1.
        -11    1    3    3    0    0  0.19865418848E+02  0.15601004078E+02 -0.20542721624E+02  0.32558095863E+02  0.51100000000E-03 0. -1.
         12    1    3    3    0    0 -0.60017291129E+00  0.13757101322E+00  0.37296194922E+01  0.37801051393E+01  0.00000000000E+00 0. -1.
</event>
<event>
 7    1  0.5972636E-013  0.5052884E+02  0.7816164E-02  0.1300439E+00
        -11   -1    0    0    0    0  0.00000000000E+00  0.00000000000E+00  0.45593999997E+02  0.45594000000E+02  0.51100000000E-03 0.  1.
         11   -1    0    0    0    0 -0.00000000000E+00 -0.00000000000E+00 -0.45593999997E+02  0.45594000000E+02  0.51100000000E-03 0. -1.
    9900012    2    1    2    0    0  0.41742839828E+00 -0.18153558085E+02  0.36379129358E+02  0.50528843953E+02  0.29999951680E+02 0.  0.
         12    1    1    2    0    0 -0.41742839828E+00  0.18153558085E+02 -0.36379129358E+02  0.40659156047E+02  0.00000000000E+00 0. -1.
         11    1    3    3    0    0 -0.17993384522E+00  0.22491224661E+01 -0.49269531736E+00  0.23094754801E+01  0.51100000000E-03 0. -1.
        -11    1    3    3    0    0  0.10869215152E+02 -0.13866111738E+02  0.14789647457E+02  0.23003099029E+02  0.51100000000E-03 0.  1.
        -12    1    3    3    0    0 -0.10271852908E+02 -0.65365688128E+01  0.22082177218E+02  0.25216269444E+02  0.00000000000E+00 0.  1.
</event>
<event>
 7    1  0.5972636E-013  0.5052886E+02  0.7816164E-02  0.1300439E+00
        -11   -1    0    0    0    0  0.00000000000E+00  0.00000000000E+00  0.45593999997E+02  0.45594000000E+02  0.51100000000E-03 0.  1.
         11   -1    0    0    0    0 -0.00000000000E+00 -0.00000000000E+00 -0.45593999997E+02  0.45594000000E+02  0.51100000000E-03 0. -1.
    9900012    2    1    2    0    0 -0.23229116455E+02 -0.11741693662E+02  0.31236300017E+02  0.50528860067E+02  0.30000000659E+02 0.  0.
         12    1    1    2    0    0  0.23229116455E+02  0.11741693662E+02 -0.31236300017E+02  0.40659139933E+02  0.00000000000E+00 0. -1.
         11    1    3    3    0    0  0.49958735170E+01 -0.28795261725E+01  0.16442608328E+00  0.57686618356E+01  0.51100000000E-03 0. -1.
        -11    1    3    3    0    0 -0.15813226172E+02 -0.11275703147E+02  0.16663384487E+02  0.25590388552E+02  0.51100000000E-03 0.  1.
         12    1    3    3    0    0 -0.12411763800E+02  0.24135356570E+01  0.14408489446E+02  0.19169809679E+02  0.00000000000E+00 0. -1.
</event>
<event>
 7    1  0.5972636E-013  0.5052885E+02  0.7816164E-02  0.1300439E+00
        -11   -1    0    0    0    0  0.00000000000E+00  0.00000000000E+00  0.45593999997E+02  0.45594000000E+02  0.51100000000E-03 0. -1.
         11   -1    0    0    0    0 -0.00000000000E+00 -0.00000000000E+00 -0.45593999997E+02  0.45594000000E+02  0.51100000000E-03 0.  1.
    9900012    2    1    2    0    0  0.31104707294E+02  0.19069123589E+02  0.17945248780E+02  0.50528852886E+02  0.29999978831E+02 0.  0.
         12    1    1    2    0    0 -0.31104707294E+02 -0.19069123589E+02 -0.17945248780E+02  0.40659147114E+02  0.00000000000E+00 0. -1.
         11    1    3    3    0    0  0.67512324967E+01 -0.18958292318E+00 -0.57740829470E+01  0.88856691391E+01  0.51100000000E-03 0. -1.
        -11    1    3    3    0    0  0.11054482385E+02  0.16821936419E+02  0.10370817475E+02  0.22643607951E+02  0.51100000000E-03 0.  1.
         12    1    3    3    0    0  0.13298992412E+02  0.24367700930E+01  0.13348514252E+02  0.18999575795E+02  0.00000000000E+00 0. -1.
</event>
<event>
 7    1  0.5972636E-013  0.5052887E+02  0.7816164E-02  0.1300439E+00
        -11   -1    0    0    0    0  0.00000000000E+00  0.00000000000E+00  0.45593999997E+02  0.45594000000E+02  0.51100000000E-03 0. -1.
         11   -1    0    0    0    0 -0.00000000000E+00 -0.00000000000E+00 -0.45593999997E+02  0.45594000000E+02  0.51100000000E-03 0.  1.
    9900012    2    1    2    0    0  0.13037140018E+02 -0.23557264361E+02 -0.30467246080E+02  0.50528870548E+02  0.30000032519E+02 0.  0.
         12    1    1    2    0    0 -0.13037140018E+02  0.23557264361E+02  0.30467246080E+02  0.40659129452E+02  0.00000000000E+00 0. -1.
         11    1    3    3    0    0  0.83000402399E+01 -0.17029979086E+02 -0.30334308956E+02  0.35764244096E+02  0.51100000000E-03 0. -1.
        -11    1    3    3    0    0  0.76845506491E+01 -0.56243181738E+01 -0.35495308183E+01  0.10162895399E+02  0.51100000000E-03 0.  1.
         12    1    3    3    0    0 -0.29474508712E+01 -0.90296710141E+00  0.34165936936E+01  0.46017310538E+01  0.00000000000E+00 0. -1.
</event>
<event>
 7    1  0.5972636E-013  0.5052885E+02  0.7816164E-02  0.1300439E+00
        -11   -1    0    0    0    0  0.00000000000E+00  0.00000000000E+00  0.45593999997E+02  0.45594000000E+02  0.51100000000E-03 0.  1.
         11   -1    0    0    0    0 -0.00000000000E+00 -0.00000000000E+00 -0.45593999997E+02  0.45594000000E+02  0.51100000000E-03 0. -1.
    9900012    2    1    2    0    0 -0.40087976548E+01  0.40455654907E+02  0.66018952813E+00  0.50528851917E+02  0.29999975888E+02 0.  0.
         12    1    1    2    0    0  0.40087976548E+01 -0.40455654907E+02 -0.66018952813E+00  0.40659148083E+02  0.00000000000E+00 0. -1.
         11    1    3    3    0    0  0.35779745083E+01  0.80790850060E+01  0.11948887768E+02  0.14861003845E+02  0.51100000000E-03 0. -1.
        -11    1    3    3    0    0 -0.87022953933E+01  0.28418494022E+02 -0.10005711982E+02  0.31360086417E+02  0.51100000000E-03 0.  1.
         12    1    3    3    0    0  0.11155232302E+01  0.39580758791E+01 -0.12829862582E+01  0.43077616554E+01  0.00000000000E+00 0. -1.
</event>
<event>
 7    1  0.5972636E-013  0.5052886E+02  0.7816164E-02  0.1300439E+00
        -11   -1    0    0    0    0  0.00000000000E+00  0.00000000000E+00  0.45593999997E+02  0.45594000000E+02  0.51100000000E-03 0.  1.
         11   -1    0    0    0    0 -0.00000000000E+00 -0.00000000000E+00 -0.45593999997E+02  0.45594000000E+02  0.51100000000E-03 0. -1.
    9900012    2    1    2    0    0 -0.26011428452E+02 -0.29819291387E+02  0.93477705230E+01  0.50528863724E+02  0.30000011776E+02 0.  0.
         12    1    1    2    0    0  0.26011428452E+02  0.29819291387E+02 -0.93477705230E+01  0.40659136276E+02  0.00000000000E+00 0. -1.
         11    1    3    3    0    0 -0.11143489635E+02 -0.18036428760E+01 -0.60766232219E+01  0.12820134123E+02  0.51100000000E-03 0. -1.
        -11    1    3    3    0    0 -0.17071932283E+02 -0.21064900620E+02  0.12383505987E+02  0.29808256085E+02  0.51100000000E-03 0.  1.
         12    1    3    3    0    0  0.22039934663E+01 -0.69507478907E+01  0.30408877582E+01  0.79004735173E+01  0.00000000000E+00 0. -1.
</event>
<event>
 7    1  0.5972636E-013  0.5052886E+02  0.7816164E-02  0.1300439E+00
        -11   -1    0    0    0    0  0.00000000000E+00  0.00000000000E+00  0.45593999997E+02  0.45594000000E+02  0.51100000000E-03 0. -1.
         11   -1    0    0    0    0 -0.00000000000E+00 -0.00000000000E+00 -0.45593999997E+02  0.45594000000E+02  0.51100000000E-03 0.  1.
    9900012    2    1    2    0    0 -0.39068722404E+02 -0.11199848721E+02 -0.11678489862E+01  0.50528861385E+02  0.30000004666E+02 0.  0.
         12    1    1    2    0    0  0.39068722404E+02  0.11199848721E+02  0.11678489862E+01  0.40659138615E+02  0.00000000000E+00 0. -1.
         11    1    3    3    0    0  0.18955994027E+01 -0.14247529358E+01  0.21943229049E+01  0.32308313630E+01  0.51100000000E-03 0. -1.
        -11    1    3    3    0    0 -0.15915538679E+02 -0.13423759786E+02 -0.64509133438E+01  0.21797155352E+02  0.51100000000E-03 0.  1.
        -12    1    3    3    0    0 -0.25048783128E+02  0.36486640006E+01  0.30887414526E+01  0.25500874670E+02  0.00000000000E+00 0.  1.
</event>
<event>
 7    1  0.5972636E-013  0.5052887E+02  0.7816164E-02  0.1300439E+00
        -11   -1    0    0    0    0  0.00000000000E+00  0.00000000000E+00  0.45593999997E+02  0.45594000000E+02  0.51100000000E-03 0.  1.
         11   -1    0    0    0    0 -0.00000000000E+00 -0.00000000000E+00 -0.45593999997E+02  0.45594000000E+02  0.51100000000E-03 0. -1.
    9900012    2    1    2    0    0  0.13151611423E+02 -0.34414038071E+01  0.38319140275E+02  0.50528872432E+02  0.30000038245E+02 0.  0.
         12    1    1    2    0    0 -0.13151611423E+02  0.34414038071E+01 -0.38319140275E+02  0.40659127568E+02  0.00000000000E+00 0. -1.
         11    1    3    3    0    0  0.32729567802E-01  0.23841596088E+01  0.83396187786E+01  0.86737840588E+01  0.51100000000E-03 0. -1.
        -11    1    3    3    0    0  0.20266019353E+02 -0.65504627439E+01  0.26111424452E+02  0.33696091610E+02  0.51100000000E-03 0.  1.
        -12    1    3    3    0    0 -0.71471374978E+01  0.72489932801E+00  0.38680970437E+01  0.81589967635E+01  0.00000000000E+00 0.  1.
</event>
<event>
 7    1  0.5972636E-013  0.5052886E+02  0.7816164E-02  0.1300439E+00
        -11   -1    0    0    0    0  0.00000000000E+00  0.00000000000E+00  0.45593999997E+02  0.45594000000E+02  0.51100000000E-03 0. -1.
         11   -1    0    0    0    0 -0.00000000000E+00 -0.00000000000E+00 -0.45593999997E+02  0.45594000000E+02  0.51100000000E-03 0.  1.
    9900012    2    1    2    0    0  0.17313708569E+02  0.27846351249E+02 -0.24041253120E+02  0.50528860389E+02  0.30000001639E+02 0.  0.
         12    1    1    2    0    0 -0.17313708569E+02 -0.27846351249E+02  0.24041253120E+02  0.40659139611E+02  0.00000000000E+00 0. -1.
         11    1    3    3    0    0  0.13911799073E+02 -0.22819110547E+00 -0.40374658999E+01  0.14487627679E+02  0.51100000000E-03 0. -1.
        -11    1    3    3    0    0  0.54144892830E+01  0.12895369239E+02 -0.13388603051E+02  0.19361351552E+02  0.51100000000E-03 0.  1.
         12    1    3    3    0    0 -0.20125797863E+01  0.15179173115E+02 -0.66151841697E+01  0.16679881158E+02  0.00000000000E+00 0. -1.
</event>
<event>
 7    1  0.5972636E-013  0.5052886E+02  0.7816164E-02  0.1300439E+00
        -11   -1    0    0    0    0  0.00000000000E+00  0.00000000000E+00  0.45593999997E+02  0.45594000000E+02  0.51100000000E-03 0. -1.
         11   -1    0    0    0    0 -0.00000000000E+00 -0.00000000000E+00 -0.45593999997E+02  0.45594000000E+02  0.51100000000E-03 0.  1.
    9900012    2    1    2    0    0 -0.12280256193E+02  0.85323127294E+01 -0.37809527039E+02  0.50528863418E+02  0.30000010846E+02 0.  0.
         12    1    1    2    0    0  0.12280256193E+02 -0.85323127294E+01  0.37809527039E+02  0.40659136582E+02  0.00000000000E+00 0. -1.
         11    1    3    3    0    0 -0.42278672161E+00  0.12107927126E+01  0.46822622941E+01  0.48547243028E+01  0.51100000000E-03 0. -1.
        -11    1    3    3    0    0 -0.15505680003E+01  0.44300034798E+01 -0.58469089058E+01  0.74977020459E+01  0.51100000000E-03 0.  1.
         12    1    3    3    0    0 -0.10306901471E+02  0.28915165369E+01 -0.36644880427E+02  0.38176437070E+02  0.00000000000E+00 0. -1.
</event>
<event>
 7    1  0.5972636E-013  0.5052886E+02  0.7816164E-02  0.1300439E+00
        -11   -1    0    0    0    0  0.00000000000E+00  0.00000000000E+00  0.45593999997E+02  0.45594000000E+02  0.51100000000E-03 0.  1.
         11   -1    0    0    0    0 -0.00000000000E+00 -0.00000000000E+00 -0.45593999997E+02  0.45594000000E+02  0.51100000000E-03 0. -1.
    9900012    2    1    2    0    0 -0.12110215486E+02  0.27798266570E+02  0.27088091248E+02  0.50528860426E+02  0.30000001751E+02 0.  0.
         12    1    1    2    0    0  0.12110215486E+02 -0.27798266570E+02 -0.27088091248E+02  0.40659139574E+02  0.00000000000E+00 0. -1.
         11    1    3    3    0    0  0.20394890640E+01 -0.11842439143E+01  0.26017168996E+01  0.35115353305E+01  0.51100000000E-03 0. -1.
        -11    1    3    3    0    0 -0.78187307876E+01  0.31474386167E+02  0.16067826138E+02  0.36193156436E+02  0.51100000000E-03 0.  1.
        -12    1    3    3    0    0 -0.63309737626E+01 -0.24918756826E+01  0.84185482107E+01  0.10824168660E+02  0.00000000000E+00 0.  1.
</event>
<event>
 7    1  0.5972636E-013  0.5052885E+02  0.7816164E-02  0.1300439E+00
        -11   -1    0    0    0    0  0.00000000000E+00  0.00000000000E+00  0.45593999997E+02  0.45594000000E+02  0.51100000000E-03 0.  1.
         11   -1    0    0    0    0 -0.00000000000E+00 -0.00000000000E+00 -0.45593999997E+02  0.45594000000E+02  0.51100000000E-03 0. -1.
    9900012    2    1    2    0    0 -0.16831139530E+02 -0.14566483815E+02  0.34024946760E+02  0.50528847149E+02  0.29999961393E+02 0.  0.
         12    1    1    2    0    0  0.16831139530E+02  0.14566483815E+02 -0.34024946760E+02  0.40659152851E+02  0.00000000000E+00 0. -1.
         11    1    3    3    0    0 -0.59460942995E+01 -0.63375014641E+01  0.98503539816E+00  0.87458708671E+01  0.51100000000E-03 0. -1.
        -11    1    3    3    0    0 -0.12747921511E+02 -0.13392024358E+02  0.30653194511E+02  0.35797683629E+02  0.51100000000E-03 0.  1.
        -12    1    3    3    0    0  0.18628762814E+01  0.51630420069E+01  0.23867168508E+01  0.59852926521E+01  0.00000000000E+00 0.  1.
</event>
<event>
 7    1  0.5972636E-013  0.5052886E+02  0.7816164E-02  0.1300439E+00
        -11   -1    0    0    0    0  0.00000000000E+00  0.00000000000E+00  0.45593999997E+02  0.45594000000E+02  0.51100000000E-03 0. -1.
         11   -1    0    0    0    0 -0.00000000000E+00 -0.00000000000E+00 -0.45593999997E+02  0.45594000000E+02  0.51100000000E-03 0.  1.
    9900012    2    1    2    0    0  0.15058849081E+00 -0.40576223185E+02  0.25908868751E+01  0.50528864992E+02  0.30000015629E+02 0.  0.
         12    1    1    2    0    0 -0.15058849081E+00  0.40576223185E+02 -0.25908868751E+01  0.40659135008E+02  0.00000000000E+00 0. -1.
         11    1    3    3    0    0  0.13987540511E+01 -0.19971975436E+02  0.13836623406E+02  0.24336977283E+02  0.51100000000E-03 0. -1.
        -11    1    3    3    0    0 -0.29115409230E+01 -0.42764872408E+01 -0.78981033651E+01  0.94416868564E+01  0.51100000000E-03 0.  1.
        -12    1    3    3    0    0  0.16633753627E+01 -0.16327760507E+02 -0.33476331657E+01  0.16750200852E+02  0.00000000000E+00 0.  1.
</event>
<event>
 7    1  0.5972636E-013  0.5052888E+02  0.7816164E-02  0.1300439E+00
        -11   -1    0    0    0    0  0.00000000000E+00  0.00000000000E+00  0.45593999997E+02  0.45594000000E+02  0.51100000000E-03 0.  1.
         11   -1    0    0    0    0 -0.00000000000E+00 -0.00000000000E+00 -0.45593999997E+02  0.45594000000E+02  0.51100000000E-03 0. -1.
    9900012    2    1    2    0    0 -0.40351717913E+02 -0.27318740213E+01  0.41760486354E+01  0.50528884707E+02  0.30000075554E+02 0.  0.
         12    1    1    2    0    0  0.40351717913E+02  0.27318740213E+01 -0.41760486354E+01  0.40659115293E+02  0.00000000000E+00 0. -1.
         11    1    3    3    0    0 -0.28491779570E+01  0.54290253797E+01  0.73658957596E+01  0.95837650330E+01  0.51100000000E-03 0. -1.
        -11    1    3    3    0    0 -0.32552012744E+02 -0.40209298798E+01 -0.68770138947E+01  0.33512605556E+02  0.51100000000E-03 0.  1.
        -12    1    3    3    0    0 -0.49505272128E+01 -0.41399695212E+01  0.36871667705E+01  0.74325141180E+01  0.00000000000E+00 0.  1.
</event>
<event>
 7    1  0.5972636E-013  0.5052886E+02  0.7816164E-02  0.1300439E+00
        -11   -1    0    0    0    0  0.00000000000E+00  0.00000000000E+00  0.45593999997E+02  0.45594000000E+02  0.51100000000E-03 0.  1.
         11   -1    0    0    0    0 -0.00000000000E+00 -0.00000000000E+00 -0.45593999997E+02  0.45594000000E+02  0.51100000000E-03 0. -1.
    9900012    2    1    2    0    0  0.85653688992E+01 -0.20975314172E+02  0.33761465836E+02  0.50528856817E+02  0.29999990782E+02 0.  0.
         12    1    1    2    0    0 -0.85653688992E+01  0.20975314172E+02 -0.33761465836E+02  0.40659143183E+02  0.00000000000E+00 0. -1.
         11    1    3    3    0    0 -0.33149168712E+01 -0.81212477370E+01 -0.13080707652E+01  0.88687309157E+01  0.51100000000E-03 0. -1.
        -11    1    3    3    0    0  0.13114248450E+02 -0.13330716009E+02  0.23581388448E+02  0.30096069230E+02  0.51100000000E-03 0.  1.
         12    1    3    3    0    0 -0.12339626800E+01  0.47664957377E+00  0.11488148153E+02  0.11564056671E+02  0.00000000000E+00 0. -1.
</event>
<event>
 7    1  0.5972636E-013  0.5052887E+02  0.7816164E-02  0.1300439E+00
        -11   -1    0    0    0    0  0.00000000000E+00  0.00000000000E+00  0.45593999997E+02  0.45594000000E+02  0.51100000000E-03 0. -1.
         11   -1    0    0    0    0 -0.00000000000E+00 -0.00000000000E+00 -0.45593999997E+02  0.45594000000E+02  0.51100000000E-03 0.  1.
    9900012    2    1    2    0    0  0.40444576741E+02 -0.10180651135E+01 -0.40453520807E+01  0.50528866735E+02  0.30000020929E+02 0.  0.
         12    1    1    2    0    0 -0.40444576741E+02  0.10180651135E+01  0.40453520807E+01  0.40659133265E+02  0.00000000000E+00 0. -1.
         11    1    3    3    0    0 -0.16339050788E+01 -0.89690156501E+00  0.54482051854E+01  0.57582131106E+01  0.51100000000E-03 0. -1.
        -11    1    3    3    0    0  0.19067750746E+02 -0.47278471439E+01 -0.81385784011E+01  0.21264245009E+02  0.51100000000E-03 0.  1.
         12    1    3    3    0    0  0.23010731074E+02  0.46066835954E+01 -0.13549788650E+01  0.23506408616E+02  0.00000000000E+00 0. -1.
</event>
<event>
 7    1  0.5972636E-013  0.5052889E+02  0.7816164E-02  0.1300439E+00
        -11   -1    0    0    0    0  0.00000000000E+00  0.00000000000E+00  0.45593999997E+02  0.45594000000E+02  0.51100000000E-03 0. -1.
         11   -1    0    0    0    0 -0.00000000000E+00 -0.00000000000E+00 -0.45593999997E+02  0.45594000000E+02  0.51100000000E-03 0.  1.
    9900012    2    1    2    0    0  0.19255404380E+02  0.78605006088E+01 -0.34937159449E+02  0.50528890590E+02  0.30000093437E+02 0.  0.
         12    1    1    2    0    0 -0.19255404380E+02 -0.78605006088E+01  0.34937159449E+02  0.40659109410E+02  0.00000000000E+00 0. -1.
         11    1    3    3    0    0 -0.36951176261E+01  0.10834614490E+01 -0.38466905003E+01  0.54428679066E+01  0.51100000000E-03 0. -1.
        -11    1    3    3    0    0  0.20758760298E+02  0.41147336260E+01 -0.34346842870E+02  0.40343063559E+02  0.51100000000E-03 0.  1.
        -12    1    3    3    0    0  0.21917617074E+01  0.26623055337E+01  0.32563739216E+01  0.47429591242E+01  0.00000000000E+00 0.  1.
</event>
<event>
 7    1  0.5972636E-013  0.5052886E+02  0.7816164E-02  0.1300439E+00
        -11   -1    0    0    0    0  0.00000000000E+00  0.00000000000E+00  0.45593999997E+02  0.45594000000E+02  0.51100000000E-03 0.  1.
         11   -1    0    0    0    0 -0.00000000000E+00 -0.00000000000E+00 -0.45593999997E+02  0.45594000000E+02  0.51100000000E-03 0. -1.
    9900012    2    1    2    0    0 -0.27508911627E+02 -0.14693371850E+02  0.26086977000E+02  0.50528858787E+02  0.29999996768E+02 0.  0.
         12    1    1    2    0    0  0.27508911627E+02  0.14693371850E+02 -0.26086977000E+02  0.40659141213E+02  0.00000000000E+00 0. -1.
         11    1    3    3    0    0 -0.10922417092E+02 -0.13542478494E+02  0.70823067994E+00  0.17412625013E+02  0.51100000000E-03 0. -1.
        -11    1    3    3    0    0 -0.17616079732E+02  0.18004504327E+01  0.18764961149E+02  0.25801001029E+02  0.51100000000E-03 0.  1.
         12    1    3    3    0    0  0.10295851969E+01 -0.29513437883E+01  0.66137851701E+01  0.73152327448E+01  0.00000000000E+00 0. -1.
</event>
<event>
 7    1  0.5972636E-013  0.5052883E+02  0.7816164E-02  0.1300439E+00
        -11   -1    0    0    0    0  0.00000000000E+00  0.00000000000E+00  0.45593999997E+02  0.45594000000E+02  0.51100000000E-03 0.  1.
         11   -1    0    0    0    0 -0.00000000000E+00 -0.00000000000E+00 -0.45593999997E+02  0.45594000000E+02  0.51100000000E-03 0. -1.
    9900012    2    1    2    0    0  0.23549572962E+02 -0.31292035113E+02  0.10926775304E+02  0.50528828012E+02  0.29999903226E+02 0.  0.
         12    1    1    2    0    0 -0.23549572962E+02  0.31292035113E+02 -0.10926775304E+02  0.40659171988E+02  0.00000000000E+00 0. -1.
         11    1    3    3    0    0  0.18685527337E+02 -0.10771188156E+02  0.36899637870E+01  0.21881116497E+02  0.51100000000E-03 0. -1.
        -11    1    3    3    0    0  0.66531814304E+00 -0.22533510514E+02  0.80173559537E+01  0.23926548875E+02  0.51100000000E-03 0.  1.
         12    1    3    3    0    0  0.41987274822E+01  0.20126635566E+01 -0.78054443672E+00  0.47211626406E+01  0.00000000000E+00 0. -1.
</event>
<event>
 7    1  0.5972636E-013  0.5052886E+02  0.7816164E-02  0.1300439E+00
        -11   -1    0    0    0    0  0.00000000000E+00  0.00000000000E+00  0.45593999997E+02  0.45594000000E+02  0.51100000000E-03 0. -1.
         11   -1    0    0    0    0 -0.00000000000E+00 -0.00000000000E+00 -0.45593999997E+02  0.45594000000E+02  0.51100000000E-03 0.  1.
    9900012    2    1    2    0    0  0.13234452674E+02  0.33729087791E+02  0.18448939086E+02  0.50528862599E+02  0.30000008355E+02 0.  0.
         12    1    1    2    0    0 -0.13234452674E+02 -0.33729087791E+02 -0.18448939086E+02  0.40659137401E+02  0.00000000000E+00 0. -1.
         11    1    3    3    0    0 -0.42882060084E+01  0.19541618226E+01  0.40895975710E+01  0.62395727220E+01  0.51100000000E-03 0. -1.
        -11    1    3    3    0    0  0.12675755550E+02  0.33942430452E+02  0.14375690874E+02  0.38979787739E+02  0.51100000000E-03 0.  1.
        -12    1    3    3    0    0  0.48469031318E+01 -0.21675044834E+01 -0.16349359318E-01  0.53095021383E+01  0.00000000000E+00 0.  1.
</event>
<event>
 7    1  0.5972636E-013  0.5052885E+02  0.7816164E-02  0.1300439E+00
        -11   -1    0    0    0    0  0.00000000000E+00  0.00000000000E+00  0.45593999997E+02  0.45594000000E+02  0.51100000000E-03 0.  1.
         11   -1    0    0    0    0 -0.00000000000E+00 -0.00000000000E+00 -0.45593999997E+02  0.45594000000E+02  0.51100000000E-03 0. -1.
    9900012    2    1    2    0    0 -0.44866037764E+01  0.35140560828E+02  0.19954384232E+02  0.50528854917E+02  0.29999985006E+02 0.  0.
         12    1    1    2    0    0  0.44866037764E+01 -0.35140560828E+02 -0.19954384232E+02  0.40659145083E+02  0.00000000000E+00 0. -1.
         11    1    3    3    0    0 -0.27922942959E+01  0.35701028530E+01  0.44149843860E+01  0.63272924071E+01  0.51100000000E-03 0.  1.
        -11    1    3    3    0    0  0.81068159553E+01  0.13908947489E+02  0.17654080181E+02  0.23892380218E+02  0.51100000000E-03 0. -1.
        -12    1    3    3    0    0 -0.98011254358E+01  0.17661510486E+02 -0.21146803345E+01  0.20309182292E+02  0.00000000000E+00 0.  1.
</event>
<event>
 7    1  0.5972636E-013  0.5052886E+02  0.7816164E-02  0.1300439E+00
        -11   -1    0    0    0    0  0.00000000000E+00  0.00000000000E+00  0.45593999997E+02  0.45594000000E+02  0.51100000000E-03 0.  1.
         11   -1    0    0    0    0 -0.00000000000E+00 -0.00000000000E+00 -0.45593999997E+02  0.45594000000E+02  0.51100000000E-03 0. -1.
    9900012    2    1    2    0    0 -0.38948903701E+02 -0.71946446008E+01 -0.91861807251E+01  0.50528856788E+02  0.29999990692E+02 0.  0.
         12    1    1    2    0    0  0.38948903701E+02  0.71946446008E+01  0.91861807251E+01  0.40659143212E+02  0.00000000000E+00 0. -1.
         11    1    3    3    0    0 -0.27017900108E+02 -0.12983180224E+02 -0.51279848198E+01  0.30410954006E+02  0.51100000000E-03 0.  1.
        -11    1    3    3    0    0 -0.44625028442E+01  0.98873625460E+01 -0.41048976535E+01  0.11598450533E+02  0.51100000000E-03 0. -1.
         12    1    3    3    0    0 -0.74685007489E+01 -0.40988269227E+01  0.46701748198E-01  0.85194522495E+01  0.00000000000E+00 0. -1.
</event>
<event>
 7    1  0.5972636E-013  0.5052887E+02  0.7816164E-02  0.1300439E+00
        -11   -1    0    0    0    0  0.00000000000E+00  0.00000000000E+00  0.45593999997E+02  0.45594000000E+02  0.51100000000E-03 0.  1.
         11   -1    0    0    0    0 -0.00000000000E+00 -0.00000000000E+00 -0.45593999997E+02  0.45594000000E+02  0.51100000000E-03 0. -1.
    9900012    2    1    2    0    0 -0.19564466742E+02  0.26790961798E+02  0.23508315076E+02  0.50528869775E+02  0.30000030168E+02 0.  0.
         12    1    1    2    0    0  0.19564466742E+02 -0.26790961798E+02 -0.23508315076E+02  0.40659130225E+02  0.00000000000E+00 0. -1.
         11    1    3    3    0    0 -0.25924294723E+02  0.20333364840E+02  0.15446408085E+02  0.36388271539E+02  0.51100000000E-03 0. -1.
        -11    1    3    3    0    0  0.15013170047E+01  0.39406161174E+01  0.75462837539E+01  0.86445825167E+01  0.51100000000E-03 0.  1.
         12    1    3    3    0    0  0.48585109766E+01  0.25169808406E+01  0.51562323649E+00  0.54960157190E+01  0.00000000000E+00 0. -1.
</event>
<event>
 7    1  0.5972636E-013  0.5052885E+02  0.7816164E-02  0.1300439E+00
        -11   -1    0    0    0    0  0.00000000000E+00  0.00000000000E+00  0.45593999997E+02  0.45594000000E+02  0.51100000000E-03 0. -1.
         11   -1    0    0    0    0 -0.00000000000E+00 -0.00000000000E+00 -0.45593999997E+02  0.45594000000E+02  0.51100000000E-03 0.  1.
    9900012    2    1    2    0    0  0.10097583125E+02  0.31215444343E+02 -0.24016683165E+02  0.50528853173E+02  0.29999979704E+02 0.  0.
         12    1    1    2    0    0 -0.10097583125E+02 -0.31215444343E+02  0.24016683165E+02  0.40659146827E+02  0.00000000000E+00 0. -1.
         11    1    3    3    0    0  0.76399090155E+01  0.48907377455E+01  0.10329744476E+01  0.91298719559E+01  0.51100000000E-03 0. -1.
        -11    1    3    3    0    0 -0.21738248902E+01  0.27468474237E+02 -0.18092677045E+02  0.32963427530E+02  0.51100000000E-03 0.  1.
        -12    1    3    3    0    0  0.46314989997E+01 -0.11437676399E+01 -0.69569805673E+01  0.84355536873E+01  0.00000000000E+00 0.  1.
</event>
<event>
 7    1  0.5972636E-013  0.5052886E+02  0.7816164E-02  0.1300439E+00
        -11   -1    0    0    0    0  0.00000000000E+00  0.00000000000E+00  0.45593999997E+02  0.45594000000E+02  0.51100000000E-03 0.  1.
         11   -1    0    0    0    0 -0.00000000000E+00 -0.00000000000E+00 -0.45593999997E+02  0.45594000000E+02  0.51100000000E-03 0. -1.
    9900012    2    1    2    0    0  0.61874228740E+01  0.40150828990E+02 -0.16711588518E+01  0.50528855366E+02  0.29999986371E+02 0.  0.
         12    1    1    2    0    0 -0.61874228740E+01 -0.40150828990E+02  0.16711588518E+01  0.40659144634E+02  0.00000000000E+00 0. -1.
         11    1    3    3    0    0 -0.30829910846E+01 -0.18291993095E+01 -0.43013080585E+01  0.55992906173E+01  0.51100000000E-03 0. -1.
        -11    1    3    3    0    0  0.44744570685E+01  0.38868660881E+02  0.19722822008E+01  0.39175036210E+02  0.51100000000E-03 0.  1.
        -12    1    3    3    0    0  0.47959568901E+01  0.31113674193E+01  0.65786700592E+00  0.57545285391E+01  0.00000000000E+00 0.  1.
</event>
<event>
 7    1  0.5972636E-013  0.5052887E+02  0.7816164E-02  0.1300439E+00
        -11   -1    0    0    0    0  0.00000000000E+00  0.00000000000E+00  0.45593999997E+02  0.45594000000E+02  0.51100000000E-03 0. -1.
         11   -1    0    0    0    0 -0.00000000000E+00 -0.00000000000E+00 -0.45593999997E+02  0.45594000000E+02  0.51100000000E-03 0.  1.
    9900012    2    1    2    0    0  0.21972756625E+02  0.79971348346E+01 -0.33262725654E+02  0.50528866743E+02  0.30000020953E+02 0.  0.
         12    1    1    2    0    0 -0.21972756625E+02 -0.79971348346E+01  0.33262725654E+02  0.40659133257E+02  0.00000000000E+00 0. -1.
         11    1    3    3    0    0  0.18205122211E+02 -0.47227607145E+01 -0.17932922927E+02  0.25986932649E+02  0.51100000000E-03 0. -1.
        -11    1    3    3    0    0  0.75254391008E+00  0.14785323143E+02 -0.92758396725E+01  0.17470355024E+02  0.51100000000E-03 0.  1.
        -12    1    3    3    0    0  0.30150905034E+01 -0.20654275940E+01 -0.60539630540E+01  0.70715790704E+01  0.00000000000E+00 0.  1.
</event>
<event>
 7    1  0.5972636E-013  0.5052885E+02  0.7816164E-02  0.1300439E+00
        -11   -1    0    0    0    0  0.00000000000E+00  0.00000000000E+00  0.45593999997E+02  0.45594000000E+02  0.51100000000E-03 0.  1.
         11   -1    0    0    0    0 -0.00000000000E+00 -0.00000000000E+00 -0.45593999997E+02  0.45594000000E+02  0.51100000000E-03 0. -1.
    9900012    2    1    2    0    0 -0.30507784120E+01  0.39897243207E+02  0.72158765199E+01  0.50528854185E+02  0.29999982781E+02 0.  0.
         12    1    1    2    0    0  0.30507784120E+01 -0.39897243207E+02 -0.72158765199E+01  0.40659145815E+02  0.00000000000E+00 0. -1.
         11    1    3    3    0    0  0.38420310754E+01  0.34494261547E+02  0.60554111250E+01  0.35231850456E+02  0.51100000000E-03 0. -1.
        -11    1    3    3    0    0 -0.10326335303E+02  0.42756457273E+01 -0.76415049472E+00  0.11202601189E+02  0.51100000000E-03 0.  1.
        -12    1    3    3    0    0  0.34335258153E+01  0.11273359331E+01  0.19246158896E+01  0.40944025392E+01  0.00000000000E+00 0.  1.
</event>
<event>
 7    1  0.5972636E-013  0.5052886E+02  0.7816164E-02  0.1300439E+00
        -11   -1    0    0    0    0  0.00000000000E+00  0.00000000000E+00  0.45593999997E+02  0.45594000000E+02  0.51100000000E-03 0.  1.
         11   -1    0    0    0    0 -0.00000000000E+00 -0.00000000000E+00 -0.45593999997E+02  0.45594000000E+02  0.51100000000E-03 0. -1.
    9900012    2    1    2    0    0  0.14138555129E+01 -0.52636257559E+01  0.40292189732E+02  0.50528864533E+02  0.30000014234E+02 0.  0.
         12    1    1    2    0    0 -0.14138555129E+01  0.52636257559E+01 -0.40292189732E+02  0.40659135467E+02  0.00000000000E+00 0. -1.
         11    1    3    3    0    0  0.11761985189E+02 -0.21000401764E+01  0.97106060983E+01  0.15396439049E+02  0.51100000000E-03 0. -1.
        -11    1    3    3    0    0 -0.72638798265E+01 -0.80291791092E+01  0.24334875500E+02  0.26634898783E+02  0.51100000000E-03 0.  1.
        -12    1    3    3    0    0 -0.30842498495E+01  0.48655935297E+01  0.62467081335E+01  0.84975267011E+01  0.00000000000E+00 0.  1.
</event>
<event>
 7    1  0.5972636E-013  0.5052886E+02  0.7816164E-02  0.1300439E+00
        -11   -1    0    0    0    0  0.00000000000E+00  0.00000000000E+00  0.45593999997E+02  0.45594000000E+02  0.51100000000E-03 0. -1.
         11   -1    0    0    0    0 -0.00000000000E+00 -0.00000000000E+00 -0.45593999997E+02  0.45594000000E+02  0.51100000000E-03 0.  1.
    9900012    2    1    2    0    0 -0.45682943501E+01  0.16371950930E+02 -0.36935829479E+02  0.50528860931E+02  0.30000003285E+02 0.  0.
         12    1    1    2    0    0  0.45682943501E+01 -0.16371950930E+02  0.36935829479E+02  0.40659139069E+02  0.00000000000E+00 0. -1.
         11    1    3    3    0    0 -0.57867359998E+00 -0.45568879064E+00  0.20889355246E+01  0.22149869743E+01  0.51100000000E-03 0. -1.
        -11    1    3    3    0    0 -0.84804706121E+01  0.16839073657E+02 -0.39528651480E+02  0.43794829279E+02  0.51100000000E-03 0.  1.
        -12    1    3    3    0    0  0.44908498620E+01 -0.11433936214E-01  0.50388647640E+00  0.45190446777E+01  0.00000000000E+00 0.  1.
</event>
<event>
 7    1  0.5972636E-013  0.5052884E+02  0.7816164E-02  0.1300439E+00
        -11   -1    0    0    0    0  0.00000000000E+00  0.00000000000E+00  0.45593999997E+02  0.45594000000E+02  0.51100000000E-03 0.  1.
         11   -1    0    0    0    0 -0.00000000000E+00 -0.00000000000E+00 -0.45593999997E+02  0.45594000000E+02  0.51100000000E-03 0. -1.
    9900012    2    1    2    0    0  0.35731042241E+02 -0.16306616317E+02  0.10514487372E+02  0.50528836703E+02  0.29999929642E+02 0.  0.
         12    1    1    2    0    0 -0.35731042241E+02  0.16306616317E+02 -0.10514487372E+02  0.40659163297E+02  0.00000000000E+00 0. -1.
         11    1    3    3    0    0  0.12297507375E+02 -0.13145623380E+02 -0.53448067855E+01  0.18777727805E+02  0.51100000000E-03 0. -1.
        -11    1    3    3    0    0  0.83292057507E+01  0.55715439087E+01  0.49804640126E+01  0.11190299013E+02  0.51100000000E-03 0.  1.
         12    1    3    3    0    0  0.15104329115E+02 -0.87325368462E+01  0.10878830145E+02  0.20560809884E+02  0.00000000000E+00 0. -1.
</event>
<event>
 7    1  0.5972636E-013  0.5052884E+02  0.7816164E-02  0.1300439E+00
        -11   -1    0    0    0    0  0.00000000000E+00  0.00000000000E+00  0.45593999997E+02  0.45594000000E+02  0.51100000000E-03 0.  1.
         11   -1    0    0    0    0 -0.00000000000E+00 -0.00000000000E+00 -0.45593999997E+02  0.45594000000E+02  0.51100000000E-03 0. -1.
    9900012    2    1    2    0    0  0.10749434407E+02 -0.31529192318E+02  0.23313664090E+02  0.50528840619E+02  0.29999941545E+02 0.  0.
         12    1    1    2    0    0 -0.10749434407E+02  0.31529192318E+02 -0.23313664090E+02  0.40659159381E+02  0.00000000000E+00 0. -1.
         11    1    3    3    0    0  0.14140388309E+02 -0.52703261450E+01  0.33058517957E+00  0.15094244135E+02  0.51100000000E-03 0. -1.
        -11    1    3    3    0    0 -0.31266068790E+01 -0.68508969319E+01  0.71823967982E+01  0.10406598069E+02  0.51100000000E-03 0.  1.
         12    1    3    3    0    0 -0.26434702229E+00 -0.19407969241E+02  0.15800682112E+02  0.25027998414E+02  0.00000000000E+00 0. -1.
</event>
<event>
 7    1  0.5972636E-013  0.5052889E+02  0.7816164E-02  0.1300439E+00
        -11   -1    0    0    0    0  0.00000000000E+00  0.00000000000E+00  0.45593999997E+02  0.45594000000E+02  0.51100000000E-03 0.  1.
         11   -1    0    0    0    0 -0.00000000000E+00 -0.00000000000E+00 -0.45593999997E+02  0.45594000000E+02  0.51100000000E-03 0. -1.
    9900012    2    1    2    0    0  0.30477620179E+02  0.17527200972E+02  0.20422414680E+02  0.50528891217E+02  0.30000095343E+02 0.  0.
         12    1    1    2    0    0 -0.30477620179E+02 -0.17527200972E+02 -0.20422414680E+02  0.40659108783E+02  0.00000000000E+00 0. -1.
         11    1    3    3    0    0  0.70360792381E+01  0.11683860063E+02 -0.51404812721E+01  0.14575443218E+02  0.51100000000E-03 0. -1.
        -11    1    3    3    0    0  0.13865661250E+02 -0.32824757537E+00  0.14749070215E+02  0.20245971966E+02  0.51100000000E-03 0.  1.
        -12    1    3    3    0    0  0.95758796914E+01  0.61715884837E+01  0.10813825737E+02  0.15707476033E+02  0.00000000000E+00 0.  1.
</event>
<event>
 7    1  0.5972636E-013  0.5052886E+02  0.7816164E-02  0.1300439E+00
        -11   -1    0    0    0    0  0.00000000000E+00  0.00000000000E+00  0.45593999997E+02  0.45594000000E+02  0.51100000000E-03 0.  1.
         11   -1    0    0    0    0 -0.00000000000E+00 -0.00000000000E+00 -0.45593999997E+02  0.45594000000E+02  0.51100000000E-03 0. -1.
    9900012    2    1    2    0    0  0.36645688490E+02 -0.79730132742E+01  0.15706373305E+02  0.50528860954E+02  0.30000003355E+02 0.  0.
         12    1    1    2    0    0 -0.36645688490E+02  0.79730132742E+01 -0.15706373305E+02  0.40659139046E+02  0.00000000000E+00 0. -1.
         11    1    3    3    0    0  0.70057427600E+01  0.31584183751E+01 -0.42631056477E+01  0.87880662421E+01  0.51100000000E-03 0. -1.
        -11    1    3    3    0    0  0.30345716236E+02 -0.12697729279E+02  0.21615574553E+02  0.39361502591E+02  0.51100000000E-03 0.  1.
        -12    1    3    3    0    0 -0.70577050606E+00  0.15662976293E+01 -0.16460956001E+01  0.23792921206E+01  0.00000000000E+00 0.  1.
</event>
<event>
 7    1  0.5972636E-013  0.5052886E+02  0.7816164E-02  0.1300439E+00
        -11   -1    0    0    0    0  0.00000000000E+00  0.00000000000E+00  0.45593999997E+02  0.45594000000E+02  0.51100000000E-03 0.  1.
         11   -1    0    0    0    0 -0.00000000000E+00 -0.00000000000E+00 -0.45593999997E+02  0.45594000000E+02  0.51100000000E-03 0. -1.
    9900012    2    1    2    0    0 -0.11760924182E+02  0.30493036923E+02  0.24187209007E+02  0.50528859355E+02  0.29999998495E+02 0.  0.
         12    1    1    2    0    0  0.11760924182E+02 -0.30493036923E+02 -0.24187209007E+02  0.40659140645E+02  0.00000000000E+00 0. -1.
         11    1    3    3    0    0  0.36578079007E+01  0.15047940668E+01  0.21574755669E+01  0.45054039669E+01  0.51100000000E-03 0. -1.
        -11    1    3    3    0    0 -0.11273362962E+02  0.34550855971E+01 -0.38262530273E+00  0.11797149288E+02  0.51100000000E-03 0.  1.
        -12    1    3    3    0    0 -0.41453691216E+01  0.25533157259E+02  0.22412358743E+02  0.34226306100E+02  0.00000000000E+00 0.  1.
</event>
<event>
 7    1  0.5972636E-013  0.5052886E+02  0.7816164E-02  0.1300439E+00
        -11   -1    0    0    0    0  0.00000000000E+00  0.00000000000E+00  0.45593999997E+02  0.45594000000E+02  0.51100000000E-03 0.  1.
         11   -1    0    0    0    0 -0.00000000000E+00 -0.00000000000E+00 -0.45593999997E+02  0.45594000000E+02  0.51100000000E-03 0. -1.
    9900012    2    1    2    0    0 -0.31687106330E+02  0.20224244305E+02  0.15494291391E+02  0.50528857965E+02  0.29999994272E+02 0.  0.
         12    1    1    2    0    0  0.31687106330E+02 -0.20224244305E+02 -0.15494291391E+02  0.40659142035E+02  0.00000000000E+00 0. -1.
         11    1    3    3    0    0 -0.32189670604E+00  0.75856096580E+01  0.39787369311E+00  0.76028544054E+01  0.51100000000E-03 0. -1.
        -11    1    3    3    0    0 -0.29674520321E+02  0.13802131260E+02  0.19479803636E+02  0.38085938791E+02  0.51100000000E-03 0.  1.
        -12    1    3    3    0    0 -0.16906893027E+01 -0.11634966132E+01 -0.43833859382E+01  0.48400647692E+01  0.00000000000E+00 0.  1.
</event>
<event>
 7    1  0.5972636E-013  0.5052885E+02  0.7816164E-02  0.1300439E+00
        -11   -1    0    0    0    0  0.00000000000E+00  0.00000000000E+00  0.45593999997E+02  0.45594000000E+02  0.51100000000E-03 0.  1.
         11   -1    0    0    0    0 -0.00000000000E+00 -0.00000000000E+00 -0.45593999997E+02  0.45594000000E+02  0.51100000000E-03 0. -1.
    9900012    2    1    2    0    0  0.38424582492E+02 -0.12869777637E+02  0.33296792631E+01  0.50528849983E+02  0.29999970009E+02 0.  0.
         12    1    1    2    0    0 -0.38424582492E+02  0.12869777637E+02 -0.33296792631E+01  0.40659150017E+02  0.00000000000E+00 0. -1.
         11    1    3    3    0    0  0.27074348872E+02  0.40775135336E+01  0.41885298549E+01  0.27698199690E+02  0.51100000000E-03 0. -1.
        -11    1    3    3    0    0  0.11645156375E+02 -0.16741714244E+02  0.14962104447E+01  0.20448308213E+02  0.51100000000E-03 0.  1.
         12    1    3    3    0    0 -0.29492275479E+00 -0.20557692701E+00 -0.23550610365E+01  0.23823420808E+01  0.00000000000E+00 0. -1.
</event>
<event>
 7    1  0.5972636E-013  0.5052880E+02  0.7816164E-02  0.1300439E+00
        -11   -1    0    0    0    0  0.00000000000E+00  0.00000000000E+00  0.45593999997E+02  0.45594000000E+02  0.51100000000E-03 0.  1.
         11   -1    0    0    0    0 -0.00000000000E+00 -0.00000000000E+00 -0.45593999997E+02  0.45594000000E+02  0.51100000000E-03 0. -1.
    9900012    2    1    2    0    0 -0.29680509014E+02  0.26866723594E+02  0.71005196365E+01  0.50528796477E+02  0.29999807371E+02 0.  0.
         12    1    1    2    0    0  0.29680509014E+02 -0.26866723594E+02 -0.71005196365E+01  0.40659203523E+02  0.00000000000E+00 0. -1.
         11    1    3    3    0    0 -0.28833233083E+02  0.11497557105E+02  0.86168811673E+01  0.32214900135E+02  0.51100000000E-03 0. -1.
        -11    1    3    3    0    0 -0.44820942597E+01  0.99272861743E+01 -0.35580979158E+01  0.11458631715E+02  0.51100000000E-03 0.  1.
         12    1    3    3    0    0  0.36348183286E+01  0.54418803151E+01  0.20417363850E+01  0.68552646274E+01  0.00000000000E+00 0. -1.
</event>
<event>
 7    1  0.5972636E-013  0.5052886E+02  0.7816164E-02  0.1300439E+00
        -11   -1    0    0    0    0  0.00000000000E+00  0.00000000000E+00  0.45593999997E+02  0.45594000000E+02  0.51100000000E-03 0.  1.
         11   -1    0    0    0    0 -0.00000000000E+00 -0.00000000000E+00 -0.45593999997E+02  0.45594000000E+02  0.51100000000E-03 0. -1.
    9900012    2    1    2    0    0  0.85265966819E+01 -0.23869695312E+02  0.31791510390E+02  0.50528864026E+02  0.30000012694E+02 0.  0.
         12    1    1    2    0    0 -0.85265966819E+01  0.23869695312E+02 -0.31791510390E+02  0.40659135974E+02  0.00000000000E+00 0. -1.
         11    1    3    3    0    0  0.14824803362E+02 -0.23283554432E+02  0.32602527181E+02  0.42717952673E+02  0.51100000000E-03 0.  1.
        -11    1    3    3    0    0 -0.49838516860E+01 -0.16690467588E+01  0.97227750143E+00  0.53450742289E+01  0.51100000000E-03 0. -1.
        -12    1    3    3    0    0 -0.13143549936E+01  0.10829058790E+01 -0.17832942922E+01  0.24658371245E+01  0.00000000000E+00 0.  1.
</event>
<event>
 7    1  0.5972636E-013  0.5052886E+02  0.7816164E-02  0.1300439E+00
        -11   -1    0    0    0    0  0.00000000000E+00  0.00000000000E+00  0.45593999997E+02  0.45594000000E+02  0.51100000000E-03 0. -1.
         11   -1    0    0    0    0 -0.00000000000E+00 -0.00000000000E+00 -0.45593999997E+02  0.45594000000E+02  0.51100000000E-03 0.  1.
    9900012    2    1    2    0    0 -0.28283974354E+02 -0.11320037804E+02 -0.26926556170E+02  0.50528857260E+02  0.29999992128E+02 0.  0.
         12    1    1    2    0    0  0.28283974354E+02  0.11320037804E+02  0.26926556170E+02  0.40659142740E+02  0.00000000000E+00 0. -1.
         11    1    3    3    0    0 -0.93059079247E+01 -0.21369513763E+01  0.59974555637E+01  0.11275458172E+02  0.51100000000E-03 0. -1.
        -11    1    3    3    0    0 -0.77722787209E+01 -0.52146973896E+01 -0.16643651925E+02  0.19094830061E+02  0.51100000000E-03 0.  1.
         12    1    3    3    0    0 -0.11205787709E+02 -0.39683890380E+01 -0.16280359809E+02  0.20158569027E+02  0.00000000000E+00 0. -1.
</event>
<event>
 7    1  0.5972636E-013  0.5052886E+02  0.7816164E-02  0.1300439E+00
        -11   -1    0    0    0    0  0.00000000000E+00  0.00000000000E+00  0.45593999997E+02  0.45594000000E+02  0.51100000000E-03 0.  1.
         11   -1    0    0    0    0 -0.00000000000E+00 -0.00000000000E+00 -0.45593999997E+02  0.45594000000E+02  0.51100000000E-03 0. -1.
    9900012    2    1    2    0    0  0.17687672110E+02  0.48860910193E+01  0.36282746993E+02  0.50528863763E+02  0.30000011895E+02 0.  0.
         12    1    1    2    0    0 -0.17687672110E+02 -0.48860910193E+01 -0.36282746993E+02  0.40659136237E+02  0.00000000000E+00 0. -1.
         11    1    3    3    0    0 -0.99181958619E+00 -0.62435075593E+01  0.27594060036E+01  0.68977833025E+01  0.51100000000E-03 0. -1.
        -11    1    3    3    0    0  0.16118396986E+02  0.12480938263E+02  0.16121587833E+02  0.25990039166E+02  0.51100000000E-03 0.  1.
        -12    1    3    3    0    0  0.25610947109E+01 -0.13513396841E+01  0.17401753157E+02  0.17641041295E+02  0.00000000000E+00 0.  1.
</event>
<event>
 7    1  0.5972636E-013  0.5052892E+02  0.7816164E-02  0.1300439E+00
        -11   -1    0    0    0    0  0.00000000000E+00  0.00000000000E+00  0.45593999997E+02  0.45594000000E+02  0.51100000000E-03 0.  1.
         11   -1    0    0    0    0 -0.00000000000E+00 -0.00000000000E+00 -0.45593999997E+02  0.45594000000E+02  0.51100000000E-03 0. -1.
    9900012    2    1    2    0    0 -0.15059425765E+01 -0.64888342734E+01  0.40109698102E+02  0.50528920877E+02  0.30000185497E+02 0.  0.
         12    1    1    2    0    0  0.15059425765E+01  0.64888342734E+01 -0.40109698102E+02  0.40659079123E+02  0.00000000000E+00 0. -1.
         11    1    3    3    0    0 -0.75895128320E+01  0.74735573176E+01  0.69186719794E+01  0.12701290731E+02  0.51100000000E-03 0.  1.
        -11    1    3    3    0    0  0.21259945075E+01 -0.11129511410E+02  0.29839302777E+02  0.31918174561E+02  0.51100000000E-03 0. -1.
        -12    1    3    3    0    0  0.39575757480E+01 -0.28328801808E+01  0.33517233461E+01  0.59094555849E+01  0.00000000000E+00 0.  1.
</event>
<event>
 7    1  0.5972636E-013  0.5052886E+02  0.7816164E-02  0.1300439E+00
        -11   -1    0    0    0    0  0.00000000000E+00  0.00000000000E+00  0.45593999997E+02  0.45594000000E+02  0.51100000000E-03 0.  1.
         11   -1    0    0    0    0 -0.00000000000E+00 -0.00000000000E+00 -0.45593999997E+02  0.45594000000E+02  0.51100000000E-03 0. -1.
    9900012    2    1    2    0    0  0.23562434314E+02 -0.49571120408E+00  0.33132035941E+02  0.50528857781E+02  0.29999993710E+02 0.  0.
         12    1    1    2    0    0 -0.23562434314E+02  0.49571120408E+00 -0.33132035941E+02  0.40659142219E+02  0.00000000000E+00 0. -1.
         11    1    3    3    0    0  0.15040380865E+02  0.73498763703E+01  0.18516695776E+01  0.16842280716E+02  0.51100000000E-03 0. -1.
        -11    1    3    3    0    0  0.89007471422E+01 -0.66793270539E+01  0.29460213812E+02  0.31491918133E+02  0.51100000000E-03 0.  1.
         12    1    3    3    0    0 -0.37869369322E+00 -0.11662605206E+01  0.18201525522E+01  0.21946589321E+01  0.00000000000E+00 0. -1.
</event>
<event>
 7    1  0.5972636E-013  0.5052886E+02  0.7816164E-02  0.1300439E+00
        -11   -1    0    0    0    0  0.00000000000E+00  0.00000000000E+00  0.45593999997E+02  0.45594000000E+02  0.51100000000E-03 0.  1.
         11   -1    0    0    0    0 -0.00000000000E+00 -0.00000000000E+00 -0.45593999997E+02  0.45594000000E+02  0.51100000000E-03 0. -1.
    9900012    2    1    2    0    0 -0.22843182752E+02  0.16814783536E+01  0.33593565785E+02  0.50528855520E+02  0.29999986838E+02 0.  0.
         12    1    1    2    0    0  0.22843182752E+02 -0.16814783536E+01 -0.33593565785E+02  0.40659144480E+02  0.00000000000E+00 0. -1.
         11    1    3    3    0    0 -0.86623300795E+01 -0.34743498277E+01 -0.34272412589E+01  0.99424872159E+01  0.51100000000E-03 0. -1.
        -11    1    3    3    0    0 -0.10151594820E+02  0.50578182690E+00  0.26719079632E+02  0.28587058423E+02  0.51100000000E-03 0.  1.
         12    1    3    3    0    0 -0.40292578526E+01  0.46500463544E+01  0.10301727412E+02  0.11999309880E+02  0.00000000000E+00 0. -1.
</event>
<event>
 7    1  0.5972636E-013  0.5052887E+02  0.7816164E-02  0.1300439E+00
        -11   -1    0    0    0    0  0.00000000000E+00  0.00000000000E+00  0.45593999997E+02  0.45594000000E+02  0.51100000000E-03 0.  1.
         11   -1    0    0    0    0 -0.00000000000E+00 -0.00000000000E+00 -0.45593999997E+02  0.45594000000E+02  0.51100000000E-03 0. -1.
    9900012    2    1    2    0    0  0.34786343325E+02 -0.49400065544E+01  0.20461463966E+02  0.50528869976E+02  0.30000030778E+02 0.  0.
         12    1    1    2    0    0 -0.34786343325E+02  0.49400065544E+01 -0.20461463966E+02  0.40659130024E+02  0.00000000000E+00 0. -1.
         11    1    3    3    0    0 -0.11920676515E+01 -0.52440284741E+01  0.13669834688E+01  0.55488290646E+01  0.51100000000E-03 0. -1.
        -11    1    3    3    0    0  0.33611145071E+02  0.60481282513E+01  0.18216024657E+02  0.38705458050E+02  0.51100000000E-03 0.  1.
        -12    1    3    3    0    0  0.23672659060E+01 -0.57441063315E+01  0.87845584019E+00  0.62745828611E+01  0.00000000000E+00 0.  1.
</event>
<event>
 7    1  0.5972636E-013  0.5052885E+02  0.7816164E-02  0.1300439E+00
        -11   -1    0    0    0    0  0.00000000000E+00  0.00000000000E+00  0.45593999997E+02  0.45594000000E+02  0.51100000000E-03 0.  1.
         11   -1    0    0    0    0 -0.00000000000E+00 -0.00000000000E+00 -0.45593999997E+02  0.45594000000E+02  0.51100000000E-03 0. -1.
    9900012    2    1    2    0    0  0.27194466180E+02 -0.17064871190E+02  0.24948303087E+02  0.50528847937E+02  0.29999963789E+02 0.  0.
         12    1    1    2    0    0 -0.27194466180E+02  0.17064871190E+02 -0.24948303087E+02  0.40659152063E+02  0.00000000000E+00 0. -1.
         11    1    3    3    0    0  0.92982996257E+01 -0.16060617995E+02  0.10548893447E+02  0.21346685446E+02  0.51100000000E-03 0. -1.
        -11    1    3    3    0    0  0.18868416748E+02  0.24698169637E+01  0.16343254399E+02  0.25084240292E+02  0.51100000000E-03 0.  1.
         12    1    3    3    0    0 -0.97225019394E+00 -0.34740701587E+01 -0.19438447582E+01  0.40979221992E+01  0.00000000000E+00 0. -1.
</event>
<event>
 7    1  0.5972636E-013  0.5052884E+02  0.7816164E-02  0.1300439E+00
        -11   -1    0    0    0    0  0.00000000000E+00  0.00000000000E+00  0.45593999997E+02  0.45594000000E+02  0.51100000000E-03 0.  1.
         11   -1    0    0    0    0 -0.00000000000E+00 -0.00000000000E+00 -0.45593999997E+02  0.45594000000E+02  0.51100000000E-03 0. -1.
    9900012    2    1    2    0    0 -0.65396241367E+01 -0.97492545599E+01  0.38927527525E+02  0.50528843005E+02  0.29999948798E+02 0.  0.
         12    1    1    2    0    0  0.65396241367E+01  0.97492545599E+01 -0.38927527525E+02  0.40659156995E+02  0.00000000000E+00 0. -1.
         11    1    3    3    0    0 -0.34018347356E+01  0.24352377348E+01  0.23694844827E+02  0.24061349381E+02  0.51100000000E-03 0. -1.
        -11    1    3    3    0    0  0.62470822076E+00 -0.14006461887E+02  0.16907197846E+02  0.21964165684E+02  0.51100000000E-03 0.  1.
         12    1    3    3    0    0 -0.37624976218E+01  0.18219695921E+01 -0.16745151479E+01  0.45033279394E+01  0.00000000000E+00 0. -1.
</event>
<event>
 7    1  0.5972636E-013  0.5052887E+02  0.7816164E-02  0.1300439E+00
        -11   -1    0    0    0    0  0.00000000000E+00  0.00000000000E+00  0.45593999997E+02  0.45594000000E+02  0.51100000000E-03 0. -1.
         11   -1    0    0    0    0 -0.00000000000E+00 -0.00000000000E+00 -0.45593999997E+02  0.45594000000E+02  0.51100000000E-03 0.  1.
    9900012    2    1    2    0    0 -0.25750510190E+02 -0.26316753259E+01 -0.31355234199E+02  0.50528865704E+02  0.30000017794E+02 0.  0.
         12    1    1    2    0    0  0.25750510190E+02  0.26316753259E+01  0.31355234199E+02  0.40659134296E+02  0.00000000000E+00 0. -1.
         11    1    3    3    0    0 -0.26242409739E+02  0.52904301925E+01 -0.13448622405E+02  0.29958607534E+02  0.51100000000E-03 0.  1.
        -11    1    3    3    0    0  0.32482866722E+01 -0.53153968100E+01 -0.96823034604E+01  0.11513114701E+02  0.51100000000E-03 0. -1.
        -12    1    3    3    0    0 -0.27563871233E+01 -0.26067087084E+01 -0.82243083337E+01  0.90571434697E+01  0.00000000000E+00 0.  1.
</event>
<event>
 7    1  0.5972636E-013  0.5052886E+02  0.7816164E-02  0.1300439E+00
        -11   -1    0    0    0    0  0.00000000000E+00  0.00000000000E+00  0.45593999997E+02  0.45594000000E+02  0.51100000000E-03 0.  1.
         11   -1    0    0    0    0 -0.00000000000E+00 -0.00000000000E+00 -0.45593999997E+02  0.45594000000E+02  0.51100000000E-03 0. -1.
    9900012    2    1    2    0    0  0.92177783828E+00 -0.86707386070E+01  0.39713154462E+02  0.50528855644E+02  0.29999987216E+02 0.  0.
         12    1    1    2    0    0 -0.92177783828E+00  0.86707386070E+01 -0.39713154462E+02  0.40659144356E+02  0.00000000000E+00 0. -1.
         11    1    3    3    0    0 -0.27683447287E+01 -0.78330459897E+01  0.32150014673E+01  0.89082308406E+01  0.51100000000E-03 0. -1.
        -11    1    3    3    0    0 -0.78460048426E+00 -0.52584961369E+00  0.37084820309E+02  0.37096846407E+02  0.51100000000E-03 0.  1.
        -12    1    3    3    0    0  0.44747230512E+01 -0.31184300366E+00 -0.58666731398E+00  0.45237783966E+01  0.00000000000E+00 0.  1.
</event>
<event>
 7    1  0.5972636E-013  0.5052886E+02  0.7816164E-02  0.1300439E+00
        -11   -1    0    0    0    0  0.00000000000E+00  0.00000000000E+00  0.45593999997E+02  0.45594000000E+02  0.51100000000E-03 0.  1.
         11   -1    0    0    0    0 -0.00000000000E+00 -0.00000000000E+00 -0.45593999997E+02  0.45594000000E+02  0.51100000000E-03 0. -1.
    9900012    2    1    2    0    0 -0.54919283200E+01  0.25908952073E+02  0.30850132195E+02  0.50528859199E+02  0.29999998023E+02 0.  0.
         12    1    1    2    0    0  0.54919283200E+01 -0.25908952073E+02 -0.30850132195E+02  0.40659140801E+02  0.00000000000E+00 0. -1.
         11    1    3    3    0    0 -0.53351674808E+01 -0.36409515455E+01  0.10851556646E+02  0.12628413286E+02  0.51100000000E-03 0. -1.
        -11    1    3    3    0    0 -0.62803939843E+01  0.18082058445E+02  0.12966976084E+02  0.23120265033E+02  0.51100000000E-03 0.  1.
         12    1    3    3    0    0  0.61236331450E+01  0.11467845174E+02  0.70315994647E+01  0.14780180880E+02  0.00000000000E+00 0. -1.
</event>
<event>
 7    1  0.5972636E-013  0.5052888E+02  0.7816164E-02  0.1300439E+00
        -11   -1    0    0    0    0  0.00000000000E+00  0.00000000000E+00  0.45593999997E+02  0.45594000000E+02  0.51100000000E-03 0.  1.
         11   -1    0    0    0    0 -0.00000000000E+00 -0.00000000000E+00 -0.45593999997E+02  0.45594000000E+02  0.51100000000E-03 0. -1.
    9900012    2    1    2    0    0 -0.65400946257E+01 -0.60564979222E+01  0.39670012980E+02  0.50528881286E+02  0.30000065157E+02 0.  0.
         12    1    1    2    0    0  0.65400946257E+01  0.60564979222E+01 -0.39670012980E+02  0.40659118714E+02  0.00000000000E+00 0. -1.
         11    1    3    3    0    0  0.98271525376E+01 -0.59626050369E+01  0.16263338394E+02  0.19915364968E+02  0.51100000000E-03 0. -1.
        -11    1    3    3    0    0 -0.15775369415E+02  0.26860487695E+01  0.15778586733E+02  0.22473115888E+02  0.51100000000E-03 0.  1.
         12    1    3    3    0    0 -0.59187774861E+00 -0.27799416548E+01  0.76280878529E+01  0.81404004302E+01  0.00000000000E+00 0. -1.
</event>
<event>
 7    1  0.5972636E-013  0.5052888E+02  0.7816164E-02  0.1300439E+00
        -11   -1    0    0    0    0  0.00000000000E+00  0.00000000000E+00  0.45593999997E+02  0.45594000000E+02  0.51100000000E-03 0.  1.
         11   -1    0    0    0    0 -0.00000000000E+00 -0.00000000000E+00 -0.45593999997E+02  0.45594000000E+02  0.51100000000E-03 0. -1.
    9900012    2    1    2    0    0 -0.34949030763E+02  0.15127111345E+02  0.14244282224E+02  0.50528882634E+02  0.30000069254E+02 0.  0.
         12    1    1    2    0    0  0.34949030763E+02 -0.15127111345E+02 -0.14244282224E+02  0.40659117366E+02  0.00000000000E+00 0. -1.
         11    1    3    3    0    0 -0.10416686392E+02  0.88997481409E+01 -0.12256722684E+01  0.13755549612E+02  0.51100000000E-03 0. -1.
        -11    1    3    3    0    0 -0.18025246462E+02  0.65557855985E+01  0.20845186891E+02  0.28326836245E+02  0.51100000000E-03 0.  1.
        -12    1    3    3    0    0 -0.65070979091E+01 -0.32842239434E+00 -0.53752323989E+01  0.84464967774E+01  0.00000000000E+00 0.  1.
</event>
<event>
 7    1  0.5972636E-013  0.5052886E+02  0.7816164E-02  0.1300439E+00
        -11   -1    0    0    0    0  0.00000000000E+00  0.00000000000E+00  0.45593999997E+02  0.45594000000E+02  0.51100000000E-03 0.  1.
         11   -1    0    0    0    0 -0.00000000000E+00 -0.00000000000E+00 -0.45593999997E+02  0.45594000000E+02  0.51100000000E-03 0. -1.
    9900012    2    1    2    0    0  0.26287363075E+02  0.30911743661E+02  0.25699245432E+01  0.50528857538E+02  0.29999992973E+02 0.  0.
         12    1    1    2    0    0 -0.26287363075E+02 -0.30911743661E+02 -0.25699245432E+01  0.40659142462E+02  0.00000000000E+00 0. -1.
         11    1    3    3    0    0  0.58839253378E+01 -0.17882476709E+01  0.81441820248E+01  0.10205200058E+02  0.51100000000E-03 0. -1.
        -11    1    3    3    0    0  0.31501877348E+01  0.10293145221E+02 -0.54010773313E+01  0.12043427997E+02  0.51100000000E-03 0.  1.
        -12    1    3    3    0    0  0.17253250002E+02  0.22406846110E+02 -0.17318015026E+00  0.28280229483E+02  0.00000000000E+00 0.  1.
</event>
<event>
 7    1  0.5972636E-013  0.5052896E+02  0.7816164E-02  0.1300438E+00
        -11   -1    0    0    0    0  0.00000000000E+00  0.00000000000E+00  0.45593999997E+02  0.45594000000E+02  0.51100000000E-03 0.  1.
         11   -1    0    0    0    0 -0.00000000000E+00 -0.00000000000E+00 -0.45593999997E+02  0.45594000000E+02  0.51100000000E-03 0. -1.
    9900012    2    1    2    0    0  0.31867576664E+02  0.19915866290E+02  0.15523312005E+02  0.50528961790E+02  0.30000309856E+02 0.  0.
         12    1    1    2    0    0 -0.31867576664E+02 -0.19915866290E+02 -0.15523312005E+02  0.40659038210E+02  0.00000000000E+00 0. -1.
         11    1    3    3    0    0  0.39191166204E+01 -0.15190942805E+00  0.12140283250E+02  0.12758096614E+02  0.51100000000E-03 0. -1.
        -11    1    3    3    0    0  0.27490176382E+02  0.18796928212E+02  0.68946111233E+01  0.34008380887E+02  0.51100000000E-03 0.  1.
         12    1    3    3    0    0  0.45828366196E+00  0.12708475062E+01 -0.35115823685E+01  0.37624842896E+01  0.00000000000E+00 0. -1.
</event>
<event>
 7    1  0.5972636E-013  0.5052890E+02  0.7816164E-02  0.1300439E+00
        -11   -1    0    0    0    0  0.00000000000E+00  0.00000000000E+00  0.45593999997E+02  0.45594000000E+02  0.51100000000E-03 0.  1.
         11   -1    0    0    0    0 -0.00000000000E+00 -0.00000000000E+00 -0.45593999997E+02  0.45594000000E+02  0.51100000000E-03 0. -1.
    9900012    2    1    2    0    0  0.31021181631E+02  0.15801775971E+02  0.21003629536E+02  0.50528901543E+02  0.30000126731E+02 0.  0.
         12    1    1    2    0    0 -0.31021181631E+02 -0.15801775971E+02 -0.21003629536E+02  0.40659098457E+02  0.00000000000E+00 0. -1.
         11    1    3    3    0    0  0.93512980541E+01  0.45233728404E+01 -0.54026189549E+01  0.11708798785E+02  0.51100000000E-03 0. -1.
        -11    1    3    3    0    0  0.20627718103E+02  0.13487362108E+02  0.26728007236E+02  0.36356540839E+02  0.51100000000E-03 0.  1.
        -12    1    3    3    0    0  0.10421654743E+01 -0.22089589776E+01 -0.32175874516E+00  0.24635619193E+01  0.00000000000E+00 0.  1.
</event>
<event>
 7    1  0.5972636E-013  0.5052885E+02  0.7816164E-02  0.1300439E+00
        -11   -1    0    0    0    0  0.00000000000E+00  0.00000000000E+00  0.45593999997E+02  0.45594000000E+02  0.51100000000E-03 0.  1.
         11   -1    0    0    0    0 -0.00000000000E+00 -0.00000000000E+00 -0.45593999997E+02  0.45594000000E+02  0.51100000000E-03 0. -1.
    9900012    2    1    2    0    0 -0.27863648281E+02  0.29607816118E+02  0.40060732223E+00  0.50528853957E+02  0.29999982086E+02 0.  0.
         12    1    1    2    0    0  0.27863648281E+02 -0.29607816118E+02 -0.40060732223E+00  0.40659146043E+02  0.00000000000E+00 0. -1.
         11    1    3    3    0    0 -0.23483910564E+01  0.10737328832E+02  0.98417341907E+01  0.14753470885E+02  0.51100000000E-03 0.  1.
        -11    1    3    3    0    0 -0.22932348735E+02  0.19818438696E+02 -0.52484017518E+01  0.30760507994E+02  0.51100000000E-03 0. -1.
        -12    1    3    3    0    0 -0.25829084896E+01 -0.94795141071E+00 -0.41927251167E+01  0.50148750779E+01  0.00000000000E+00 0.  1.
</event>
<event>
 7    1  0.5972636E-013  0.5052888E+02  0.7816164E-02  0.1300439E+00
        -11   -1    0    0    0    0  0.00000000000E+00  0.00000000000E+00  0.45593999997E+02  0.45594000000E+02  0.51100000000E-03 0. -1.
         11   -1    0    0    0    0 -0.00000000000E+00 -0.00000000000E+00 -0.45593999997E+02  0.45594000000E+02  0.51100000000E-03 0.  1.
    9900012    2    1    2    0    0  0.23520474052E+02  0.76832933244E+01 -0.32263267418E+02  0.50528879000E+02  0.30000058210E+02 0.  0.
         12    1    1    2    0    0 -0.23520474052E+02 -0.76832933244E+01  0.32263267418E+02  0.40659121000E+02  0.00000000000E+00 0. -1.
         11    1    3    3    0    0  0.11008478643E+02  0.93542978274E+01 -0.22481106578E+02  0.26722455783E+02  0.51100000000E-03 0. -1.
        -11    1    3    3    0    0  0.15710430817E+02 -0.50094054689E+01 -0.98019782299E+01  0.19183079969E+02  0.51100000000E-03 0.  1.
         12    1    3    3    0    0 -0.31984354075E+01  0.33384009659E+01  0.19817389107E-01  0.46233432485E+01  0.00000000000E+00 0. -1.
</event>
<event>
 7    1  0.5972636E-013  0.5052886E+02  0.7816164E-02  0.1300439E+00
        -11   -1    0    0    0    0  0.00000000000E+00  0.00000000000E+00  0.45593999997E+02  0.45594000000E+02  0.51100000000E-03 0.  1.
         11   -1    0    0    0    0 -0.00000000000E+00 -0.00000000000E+00 -0.45593999997E+02  0.45594000000E+02  0.51100000000E-03 0. -1.
    9900012    2    1    2    0    0  0.28004650013E+02  0.15748930642E+02  0.24917399037E+02  0.50528855721E+02  0.29999987451E+02 0.  0.
         12    1    1    2    0    0 -0.28004650013E+02 -0.15748930642E+02 -0.24917399037E+02  0.40659144279E+02  0.00000000000E+00 0. -1.
         11    1    3    3    0    0  0.12562787892E+02  0.84680273300E+01  0.29191480970E+02  0.32888807944E+02  0.51100000000E-03 0. -1.
        -11    1    3    3    0    0  0.14024931869E+02  0.66444122642E+01 -0.35203371807E+01  0.15913506917E+02  0.51100000000E-03 0.  1.
         12    1    3    3    0    0  0.14169302517E+01  0.63649104770E+00 -0.75374475220E+00  0.17265408606E+01  0.00000000000E+00 0. -1.
</event>
<event>
 7    1  0.5972636E-013  0.5052881E+02  0.7816164E-02  0.1300439E+00
        -11   -1    0    0    0    0  0.00000000000E+00  0.00000000000E+00  0.45593999997E+02  0.45594000000E+02  0.51100000000E-03 0. -1.
         11   -1    0    0    0    0 -0.00000000000E+00 -0.00000000000E+00 -0.45593999997E+02  0.45594000000E+02  0.51100000000E-03 0.  1.
    9900012    2    1    2    0    0 -0.30583059896E+01 -0.17266046733E+02 -0.36683790620E+02  0.50528805474E+02  0.29999834717E+02 0.  0.
         12    1    1    2    0    0  0.30583059896E+01  0.17266046733E+02  0.36683790620E+02  0.40659194526E+02  0.00000000000E+00 0. -1.
         11    1    3    3    0    0 -0.10576554967E+02  0.28937359491E+00 -0.63384604779E+01  0.12333828827E+02  0.51100000000E-03 0. -1.
        -11    1    3    3    0    0  0.79793878574E+01 -0.15252637386E+02 -0.15496270391E+02  0.23161346552E+02  0.51100000000E-03 0.  1.
         12    1    3    3    0    0 -0.46113888034E+00 -0.23027829413E+01 -0.14849059751E+02  0.15033630095E+02  0.00000000000E+00 0. -1.
</event>
<event>
 7    1  0.5972636E-013  0.5052886E+02  0.7816164E-02  0.1300439E+00
        -11   -1    0    0    0    0  0.00000000000E+00  0.00000000000E+00  0.45593999997E+02  0.45594000000E+02  0.51100000000E-03 0. -1.
         11   -1    0    0    0    0 -0.00000000000E+00 -0.00000000000E+00 -0.45593999997E+02  0.45594000000E+02  0.51100000000E-03 0.  1.
    9900012    2    1    2    0    0 -0.18819870083E+02  0.96381134459E+01 -0.34728734032E+02  0.50528859476E+02  0.29999998862E+02 0.  0.
         12    1    1    2    0    0  0.18819870083E+02 -0.96381134459E+01  0.34728734032E+02  0.40659140524E+02  0.00000000000E+00 0. -1.
         11    1    3    3    0    0 -0.67840998752E+01 -0.58147693001E+01 -0.50684786695E+01  0.10272537633E+02  0.51100000000E-03 0.  1.
        -11    1    3    3    0    0 -0.56775986236E+01  0.16630953938E+02 -0.11557449992E+02  0.21033269018E+02  0.51100000000E-03 0. -1.
         12    1    3    3    0    0 -0.63581715843E+01 -0.11780711921E+01 -0.18102805370E+02  0.19223052825E+02  0.00000000000E+00 0. -1.
</event>
<event>
 7    1  0.5972636E-013  0.5052886E+02  0.7816164E-02  0.1300439E+00
        -11   -1    0    0    0    0  0.00000000000E+00  0.00000000000E+00  0.45593999997E+02  0.45594000000E+02  0.51100000000E-03 0. -1.
         11   -1    0    0    0    0 -0.00000000000E+00 -0.00000000000E+00 -0.45593999997E+02  0.45594000000E+02  0.51100000000E-03 0.  1.
    9900012    2    1    2    0    0 -0.16246996134E+02  0.36967662302E+02 -0.47532071568E+01  0.50528856899E+02  0.29999991031E+02 0.  0.
         12    1    1    2    0    0  0.16246996134E+02 -0.36967662302E+02  0.47532071568E+01  0.40659143101E+02  0.00000000000E+00 0. -1.
         11    1    3    3    0    0 -0.16194371038E+02  0.26226435447E+02  0.42175566965E+01  0.31110630889E+02  0.51100000000E-03 0. -1.
        -11    1    3    3    0    0 -0.24485376223E+01  0.12956615277E+02 -0.93041754615E+01  0.16138057417E+02  0.51100000000E-03 0.  1.
         12    1    3    3    0    0  0.23959125268E+01 -0.22153884221E+01  0.33341160815E+00  0.32801685928E+01  0.00000000000E+00 0. -1.
</event>
<event>
 7    1  0.5972636E-013  0.5052891E+02  0.7816164E-02  0.1300439E+00
        -11   -1    0    0    0    0  0.00000000000E+00  0.00000000000E+00  0.45593999997E+02  0.45594000000E+02  0.51100000000E-03 0.  1.
         11   -1    0    0    0    0 -0.00000000000E+00 -0.00000000000E+00 -0.45593999997E+02  0.45594000000E+02  0.51100000000E-03 0. -1.
    9900012    2    1    2    0    0 -0.20163566212E+02  0.35151595704E+02  0.33101767937E+01  0.50528913029E+02  0.30000161642E+02 0.  0.
         12    1    1    2    0    0  0.20163566212E+02 -0.35151595704E+02 -0.33101767937E+01  0.40659086971E+02  0.00000000000E+00 0. -1.
         11    1    3    3    0    0 -0.16432782543E+02  0.13315560566E+02 -0.95474125089E+01  0.23205464467E+02  0.51100000000E-03 0. -1.
        -11    1    3    3    0    0  0.90442718088E+00  0.16098210711E+02  0.58580392433E+01  0.17154795267E+02  0.51100000000E-03 0.  1.
        -12    1    3    3    0    0 -0.46352108506E+01  0.57378244276E+01  0.69995500593E+01  0.10168653295E+02  0.00000000000E+00 0.  1.
</event>
<event>
 7    1  0.5972636E-013  0.5052885E+02  0.7816164E-02  0.1300439E+00
        -11   -1    0    0    0    0  0.00000000000E+00  0.00000000000E+00  0.45593999997E+02  0.45594000000E+02  0.51100000000E-03 0.  1.
         11   -1    0    0    0    0 -0.00000000000E+00 -0.00000000000E+00 -0.45593999997E+02  0.45594000000E+02  0.51100000000E-03 0. -1.
    9900012    2    1    2    0    0  0.31006356108E+02 -0.40958556430E+01  0.25980683935E+02  0.50528854777E+02  0.29999984581E+02 0.  0.
         12    1    1    2    0    0 -0.31006356108E+02  0.40958556430E+01 -0.25980683935E+02  0.40659145223E+02  0.00000000000E+00 0. -1.
         11    1    3    3    0    0  0.12910064464E+02 -0.57312275672E+01 -0.31696260822E+01  0.14476300068E+02  0.51100000000E-03 0. -1.
        -11    1    3    3    0    0  0.10880214798E+02 -0.42744277715E+01  0.13745577846E+02  0.18044132493E+02  0.51100000000E-03 0.  1.
         12    1    3    3    0    0  0.72160768453E+01  0.59097996957E+01  0.15404732171E+02  0.18008422217E+02  0.00000000000E+00 0. -1.
</event>
<event>
 7    1  0.5972636E-013  0.5052886E+02  0.7816164E-02  0.1300439E+00
        -11   -1    0    0    0    0  0.00000000000E+00  0.00000000000E+00  0.45593999997E+02  0.45594000000E+02  0.51100000000E-03 0.  1.
         11   -1    0    0    0    0 -0.00000000000E+00 -0.00000000000E+00 -0.45593999997E+02  0.45594000000E+02  0.51100000000E-03 0. -1.
    9900012    2    1    2    0    0 -0.33658521951E+02 -0.18078080186E+02  0.13908720938E+02  0.50528860791E+02  0.30000002859E+02 0.  0.
         12    1    1    2    0    0  0.33658521951E+02  0.18078080186E+02 -0.13908720938E+02  0.40659139209E+02  0.00000000000E+00 0. -1.
         11    1    3    3    0    0 -0.15919197271E+02  0.29682088940E+01  0.11227417508E+02  0.19704974244E+02  0.51100000000E-03 0. -1.
        -11    1    3    3    0    0 -0.17679082626E+02 -0.13623833259E+02 -0.13812311410E+01  0.22362168833E+02  0.51100000000E-03 0.  1.
        -12    1    3    3    0    0 -0.60242052789E-01 -0.74224558208E+01  0.40625345710E+01  0.84617177132E+01  0.00000000000E+00 0.  1.
</event>
<event>
 7    1  0.5972636E-013  0.5052886E+02  0.7816164E-02  0.1300439E+00
        -11   -1    0    0    0    0  0.00000000000E+00  0.00000000000E+00  0.45593999997E+02  0.45594000000E+02  0.51100000000E-03 0.  1.
         11   -1    0    0    0    0 -0.00000000000E+00 -0.00000000000E+00 -0.45593999997E+02  0.45594000000E+02  0.51100000000E-03 0. -1.
    9900012    2    1    2    0    0  0.16073147259E+02 -0.56792486713E+01  0.36912946040E+02  0.50528861868E+02  0.30000006134E+02 0.  0.
         12    1    1    2    0    0 -0.16073147259E+02  0.56792486713E+01 -0.36912946040E+02  0.40659138132E+02  0.00000000000E+00 0. -1.
         11    1    3    3    0    0 -0.80344843003E+00 -0.81725636301E+01  0.29411220223E+02  0.30536145810E+02  0.51100000000E-03 0. -1.
        -11    1    3    3    0    0  0.13806269593E+02  0.28406216509E+00  0.83210334564E+01  0.16122449238E+02  0.51100000000E-03 0.  1.
         12    1    3    3    0    0  0.30703260968E+01  0.22092527937E+01 -0.81930763979E+00  0.38702668197E+01  0.00000000000E+00 0. -1.
</event>
<event>
 7    1  0.5972636E-013  0.5052886E+02  0.7816164E-02  0.1300439E+00
        -11   -1    0    0    0    0  0.00000000000E+00  0.00000000000E+00  0.45593999997E+02  0.45594000000E+02  0.51100000000E-03 0.  1.
         11   -1    0    0    0    0 -0.00000000000E+00 -0.00000000000E+00 -0.45593999997E+02  0.45594000000E+02  0.51100000000E-03 0. -1.
    9900012    2    1    2    0    0 -0.53507769107E+01 -0.36763753411E+02  0.16521546322E+02  0.50528857470E+02  0.29999992766E+02 0.  0.
         12    1    1    2    0    0  0.53507769107E+01  0.36763753411E+02 -0.16521546322E+02  0.40659142530E+02  0.00000000000E+00 0. -1.
         11    1    3    3    0    0 -0.73986582699E+01 -0.23806047820E+02  0.67507993151E+01  0.25827143641E+02  0.51100000000E-03 0. -1.
        -11    1    3    3    0    0  0.66588703210E+01  0.12863630298E+01 -0.75421688296E-01  0.67824016755E+01  0.51100000000E-03 0.  1.
        -12    1    3    3    0    0 -0.46109889618E+01 -0.14244068620E+02  0.98461686956E+01  0.17919312153E+02  0.00000000000E+00 0.  1.
</event>
<event>
 7    1  0.5972636E-013  0.5052888E+02  0.7816164E-02  0.1300439E+00
        -11   -1    0    0    0    0  0.00000000000E+00  0.00000000000E+00  0.45593999997E+02  0.45594000000E+02  0.51100000000E-03 0.  1.
         11   -1    0    0    0    0 -0.00000000000E+00 -0.00000000000E+00 -0.45593999997E+02  0.45594000000E+02  0.51100000000E-03 0. -1.
    9900012    2    1    2    0    0  0.27046457375E+02 -0.43076830218E+01  0.30051578865E+02  0.50528875786E+02  0.30000048440E+02 0.  0.
         12    1    1    2    0    0 -0.27046457375E+02  0.43076830218E+01 -0.30051578865E+02  0.40659124214E+02  0.00000000000E+00 0. -1.
         11    1    3    3    0    0  0.35178449033E+01 -0.34373048847E+01 -0.51122394301E+01  0.70940319908E+01  0.51100000000E-03 0. -1.
        -11    1    3    3    0    0  0.15184386712E+02 -0.52146361378E+01  0.23252654400E+02  0.28256750817E+02  0.51100000000E-03 0.  1.
         12    1    3    3    0    0  0.83442257599E+01  0.43442580007E+01  0.11911163895E+02  0.15178092978E+02  0.00000000000E+00 0. -1.
</event>
<event>
 7    1  0.5972636E-013  0.5052886E+02  0.7816164E-02  0.1300439E+00
        -11   -1    0    0    0    0  0.00000000000E+00  0.00000000000E+00  0.45593999997E+02  0.45594000000E+02  0.51100000000E-03 0. -1.
         11   -1    0    0    0    0 -0.00000000000E+00 -0.00000000000E+00 -0.45593999997E+02  0.45594000000E+02  0.51100000000E-03 0.  1.
    9900012    2    1    2    0    0 -0.24499834561E+02  0.29959662165E+02  0.12463650924E+02  0.50528857794E+02  0.29999993752E+02 0.  0.
         12    1    1    2    0    0  0.24499834561E+02 -0.29959662165E+02 -0.12463650924E+02  0.40659142206E+02  0.00000000000E+00 0. -1.
         11    1    3    3    0    0 -0.14144629832E+01  0.11803749996E+02  0.11089877425E+01  0.11939810450E+02  0.51100000000E-03 0. -1.
        -11    1    3    3    0    0 -0.26468193619E+02  0.17194795185E+02  0.13651420567E+02  0.34388770531E+02  0.51100000000E-03 0.  1.
        -12    1    3    3    0    0  0.33828220414E+01  0.96111698331E+00 -0.22967573853E+01  0.42002768131E+01  0.00000000000E+00 0.  1.
</event>
<event>
 7    1  0.5972636E-013  0.5052886E+02  0.7816164E-02  0.1300439E+00
        -11   -1    0    0    0    0  0.00000000000E+00  0.00000000000E+00  0.45593999997E+02  0.45594000000E+02  0.51100000000E-03 0.  1.
         11   -1    0    0    0    0 -0.00000000000E+00 -0.00000000000E+00 -0.45593999997E+02  0.45594000000E+02  0.51100000000E-03 0. -1.
    9900012    2    1    2    0    0 -0.19610459458E+02 -0.35386136798E+02  0.40517490823E+01  0.50528862426E+02  0.30000007829E+02 0.  0.
         12    1    1    2    0    0  0.19610459458E+02  0.35386136798E+02 -0.40517490823E+01  0.40659137574E+02  0.00000000000E+00 0. -1.
         11    1    3    3    0    0 -0.62726418131E+01 -0.96810838873E+00 -0.53760957743E+01  0.83177926882E+01  0.51100000000E-03 0. -1.
        -11    1    3    3    0    0 -0.16830270525E+02 -0.27843897695E+02  0.35544364213E+01  0.32728804796E+02  0.51100000000E-03 0.  1.
        -12    1    3    3    0    0  0.34924528805E+01 -0.65741307143E+01  0.58734084354E+01  0.94822649415E+01  0.00000000000E+00 0.  1.
</event>
<event>
 7    1  0.5972636E-013  0.5052886E+02  0.7816164E-02  0.1300439E+00
        -11   -1    0    0    0    0  0.00000000000E+00  0.00000000000E+00  0.45593999997E+02  0.45594000000E+02  0.51100000000E-03 0. -1.
         11   -1    0    0    0    0 -0.00000000000E+00 -0.00000000000E+00 -0.45593999997E+02  0.45594000000E+02  0.51100000000E-03 0.  1.
    9900012    2    1    2    0    0 -0.32619524895E+02  0.45402115391E+01 -0.23843635199E+02  0.50528857551E+02  0.29999993011E+02 0.  0.
         12    1    1    2    0    0  0.32619524895E+02 -0.45402115391E+01  0.23843635199E+02  0.40659142449E+02  0.00000000000E+00 0. -1.
         11    1    3    3    0    0 -0.22078251226E+00 -0.30918616851E+01 -0.80267339330E+01  0.86044646254E+01  0.51100000000E-03 0. -1.
        -11    1    3    3    0    0 -0.26405303807E+02  0.33652420085E+01 -0.20150572573E+02  0.33385782875E+02  0.51100000000E-03 0.  1.
         12    1    3    3    0    0 -0.59934385760E+01  0.42668312157E+01  0.43336713073E+01  0.85386100501E+01  0.00000000000E+00 0. -1.
</event>
<event>
 7    1  0.5972636E-013  0.5052885E+02  0.7816164E-02  0.1300439E+00
        -11   -1    0    0    0    0  0.00000000000E+00  0.00000000000E+00  0.45593999997E+02  0.45594000000E+02  0.51100000000E-03 0. -1.
         11   -1    0    0    0    0 -0.00000000000E+00 -0.00000000000E+00 -0.45593999997E+02  0.45594000000E+02  0.51100000000E-03 0.  1.
    9900012    2    1    2    0    0  0.23055812667E+01 -0.30407298480E+02 -0.26893247022E+02  0.50528852921E+02  0.29999978938E+02 0.  0.
         12    1    1    2    0    0 -0.23055812667E+01  0.30407298480E+02  0.26893247022E+02  0.40659147079E+02  0.00000000000E+00 0. -1.
         11    1    3    3    0    0 -0.20402269817E+01 -0.61674699404E+01 -0.22595807515E+00  0.65000976082E+01  0.51100000000E-03 0. -1.
        -11    1    3    3    0    0  0.13222736349E+02 -0.18787848460E+02 -0.24107089329E+02  0.33301287700E+02  0.51100000000E-03 0.  1.
        -12    1    3    3    0    0 -0.88769281009E+01 -0.54519800795E+01 -0.25601996178E+01  0.10727467613E+02  0.00000000000E+00 0.  1.
</event>
<event>
 7    1  0.5972636E-013  0.5052887E+02  0.7816164E-02  0.1300439E+00
        -11   -1    0    0    0    0  0.00000000000E+00  0.00000000000E+00  0.45593999997E+02  0.45594000000E+02  0.51100000000E-03 0.  1.
         11   -1    0    0    0    0 -0.00000000000E+00 -0.00000000000E+00 -0.45593999997E+02  0.45594000000E+02  0.51100000000E-03 0. -1.
    9900012    2    1    2    0    0 -0.23795869616E+02  0.15431269436E+02  0.29134132427E+02  0.50528866224E+02  0.30000019373E+02 0.  0.
         12    1    1    2    0    0  0.23795869616E+02 -0.15431269436E+02 -0.29134132427E+02  0.40659133776E+02  0.00000000000E+00 0. -1.
         11    1    3    3    0    0 -0.41310711268E+01 -0.18686748015E+01 -0.56281553149E+00  0.45688571604E+01  0.51100000000E-03 0. -1.
        -11    1    3    3    0    0 -0.74566524371E+01  0.19915067359E+02  0.12363195692E+02  0.24597971085E+02  0.51100000000E-03 0.  1.
        -12    1    3    3    0    0 -0.12208146052E+02 -0.26151231217E+01  0.17333752266E+02  0.21362037979E+02  0.00000000000E+00 0.  1.
</event>
<event>
 7    1  0.5972636E-013  0.5052887E+02  0.7816164E-02  0.1300439E+00
        -11   -1    0    0    0    0  0.00000000000E+00  0.00000000000E+00  0.45593999997E+02  0.45594000000E+02  0.51100000000E-03 0.  1.
         11   -1    0    0    0    0 -0.00000000000E+00 -0.00000000000E+00 -0.45593999997E+02  0.45594000000E+02  0.51100000000E-03 0. -1.
    9900012    2    1    2    0    0  0.38967305374E+02 -0.11382129816E+02 -0.22718153018E+01  0.50528869266E+02  0.30000028622E+02 0.  0.
         12    1    1    2    0    0 -0.38967305374E+02  0.11382129816E+02  0.22718153018E+01  0.40659130734E+02  0.00000000000E+00 0. -1.
         11    1    3    3    0    0  0.12992534512E+02 -0.50962508281E+01 -0.93849261509E+01  0.16818280669E+02  0.51100000000E-03 0. -1.
        -11    1    3    3    0    0 -0.27396173136E+01  0.54903541433E+00  0.26639420662E+01  0.38605090991E+01  0.51100000000E-03 0.  1.
        -12    1    3    3    0    0  0.28714388176E+02 -0.68349144020E+01  0.44491687829E+01  0.29850079498E+02  0.00000000000E+00 0.  1.
</event>
<event>
 7    1  0.5972636E-013  0.5052886E+02  0.7816164E-02  0.1300439E+00
        -11   -1    0    0    0    0  0.00000000000E+00  0.00000000000E+00  0.45593999997E+02  0.45594000000E+02  0.51100000000E-03 0.  1.
         11   -1    0    0    0    0 -0.00000000000E+00 -0.00000000000E+00 -0.45593999997E+02  0.45594000000E+02  0.51100000000E-03 0. -1.
    9900012    2    1    2    0    0  0.72904898173E+00 -0.30253372890E+02  0.27154508207E+02  0.50528863270E+02  0.30000010397E+02 0.  0.
         12    1    1    2    0    0 -0.72904898173E+00  0.30253372890E+02 -0.27154508207E+02  0.40659136730E+02  0.00000000000E+00 0. -1.
         11    1    3    3    0    0 -0.99959295653E+01 -0.79508274235E+00  0.11347549145E+02  0.15143237312E+02  0.51100000000E-03 0. -1.
        -11    1    3    3    0    0  0.27561675595E+01 -0.13629723397E+02  0.61634175249E+01  0.15210310166E+02  0.51100000000E-03 0.  1.
         12    1    3    3    0    0  0.79688109876E+01 -0.15828566750E+02  0.96435415376E+01  0.20175315792E+02  0.00000000000E+00 0. -1.
</event>
<event>
 7    1  0.5972636E-013  0.5052900E+02  0.7816164E-02  0.1300438E+00
        -11   -1    0    0    0    0  0.00000000000E+00  0.00000000000E+00  0.45593999997E+02  0.45594000000E+02  0.51100000000E-03 0.  1.
         11   -1    0    0    0    0 -0.00000000000E+00 -0.00000000000E+00 -0.45593999997E+02  0.45594000000E+02  0.51100000000E-03 0. -1.
    9900012    2    1    2    0    0  0.16827851723E+02  0.16808219300E+01  0.36975028767E+02  0.50528997205E+02  0.30000417502E+02 0.  0.
         12    1    1    2    0    0 -0.16827851723E+02 -0.16808219300E+01 -0.36975028767E+02  0.40659002795E+02  0.00000000000E+00 0. -1.
         11    1    3    3    0    0  0.83422320375E+00 -0.13532413261E+01 -0.32888061353E+01  0.36528668874E+01  0.51100000000E-03 0. -1.
        -11    1    3    3    0    0  0.12733099154E+02  0.77834899066E+01  0.37745872529E+02  0.40588981539E+02  0.51100000000E-03 0.  1.
        -12    1    3    3    0    0  0.32605293648E+01 -0.47494266506E+01  0.25179623736E+01  0.62871487785E+01  0.00000000000E+00 0.  1.
</event>
<event>
 7    1  0.5972636E-013  0.5052899E+02  0.7816164E-02  0.1300438E+00
        -11   -1    0    0    0    0  0.00000000000E+00  0.00000000000E+00  0.45593999997E+02  0.45594000000E+02  0.51100000000E-03 0.  1.
         11   -1    0    0    0    0 -0.00000000000E+00 -0.00000000000E+00 -0.45593999997E+02  0.45594000000E+02  0.51100000000E-03 0. -1.
    9900012    2    1    2    0    0 -0.12714178625E+02 -0.31857305228E+02  0.21831547908E+02  0.50528994619E+02  0.30000409642E+02 0.  0.
         12    1    1    2    0    0  0.12714178625E+02  0.31857305228E+02 -0.21831547908E+02  0.40659005381E+02  0.00000000000E+00 0. -1.
         11    1    3    3    0    0  0.23427037203E+00  0.33201085229E+01 -0.17215035996E+01  0.37472093770E+01  0.51100000000E-03 0. -1.
        -11    1    3    3    0    0 -0.27956427348E+01 -0.11676495590E+02  0.16166266022E+02  0.20137137952E+02  0.51100000000E-03 0.  1.
         12    1    3    3    0    0 -0.10152806263E+02 -0.23500918161E+02  0.73867854858E+01  0.26644647290E+02  0.00000000000E+00 0. -1.
</event>
<event>
 7    1  0.5972636E-013  0.5052887E+02  0.7816164E-02  0.1300439E+00
        -11   -1    0    0    0    0  0.00000000000E+00  0.00000000000E+00  0.45593999997E+02  0.45594000000E+02  0.51100000000E-03 0.  1.
         11   -1    0    0    0    0 -0.00000000000E+00 -0.00000000000E+00 -0.45593999997E+02  0.45594000000E+02  0.51100000000E-03 0. -1.
    9900012    2    1    2    0    0 -0.10778136065E+02 -0.33379780781E+02  0.20561786028E+02  0.50528867856E+02  0.30000024336E+02 0.  0.
         12    1    1    2    0    0  0.10778136065E+02  0.33379780781E+02 -0.20561786028E+02  0.40659132144E+02  0.00000000000E+00 0. -1.
         11    1    3    3    0    0 -0.15459181555E+02 -0.17564732364E+02  0.54454087504E+01  0.24024125252E+02  0.51100000000E-03 0. -1.
        -11    1    3    3    0    0 -0.39589429869E+00 -0.13074867533E+02  0.16001763447E+02  0.20667978299E+02  0.51100000000E-03 0.  1.
        -12    1    3    3    0    0  0.50769397887E+01 -0.27401808835E+01 -0.88538616903E+00  0.58367643057E+01  0.00000000000E+00 0.  1.
</event>
<event>
 7    1  0.5972636E-013  0.5052888E+02  0.7816164E-02  0.1300439E+00
        -11   -1    0    0    0    0  0.00000000000E+00  0.00000000000E+00  0.45593999997E+02  0.45594000000E+02  0.51100000000E-03 0.  1.
         11   -1    0    0    0    0 -0.00000000000E+00 -0.00000000000E+00 -0.45593999997E+02  0.45594000000E+02  0.51100000000E-03 0. -1.
    9900012    2    1    2    0    0 -0.24427672954E+02  0.23356555980E+02  0.22603630698E+02  0.50528880064E+02  0.30000061443E+02 0.  0.
         12    1    1    2    0    0  0.24427672954E+02 -0.23356555980E+02 -0.22603630698E+02  0.40659119936E+02  0.00000000000E+00 0. -1.
         11    1    3    3    0    0 -0.20634341152E+01  0.20180109427E+02  0.65205619104E+01  0.21307564496E+02  0.51100000000E-03 0. -1.
        -11    1    3    3    0    0 -0.23026627217E+02  0.25432223926E+01  0.16239616070E+02  0.28291671415E+02  0.51100000000E-03 0.  1.
        -12    1    3    3    0    0  0.66238837760E+00  0.63322416024E+00 -0.15654728214E+00  0.92964415313E+00  0.00000000000E+00 0.  1.
</event>
<event>
 7    1  0.5972636E-013  0.5052886E+02  0.7816164E-02  0.1300439E+00
        -11   -1    0    0    0    0  0.00000000000E+00  0.00000000000E+00  0.45593999997E+02  0.45594000000E+02  0.51100000000E-03 0. -1.
         11   -1    0    0    0    0 -0.00000000000E+00 -0.00000000000E+00 -0.45593999997E+02  0.45594000000E+02  0.51100000000E-03 0.  1.
    9900012    2    1    2    0    0 -0.39386071789E+02  0.47568848493E+01  0.89036462691E+01  0.50528861774E+02  0.30000005847E+02 0.  0.
         12    1    1    2    0    0  0.39386071789E+02 -0.47568848493E+01 -0.89036462691E+01  0.40659138226E+02  0.00000000000E+00 0. -1.
         11    1    3    3    0    0 -0.20851107800E+02 -0.25837667577E+01  0.11426904763E+02  0.23916912424E+02  0.51100000000E-03 0. -1.
        -11    1    3    3    0    0 -0.18225152838E+02  0.10072058790E+02  0.24124096971E+01  0.20962401701E+02  0.51100000000E-03 0.  1.
         12    1    3    3    0    0 -0.30981115014E+00 -0.27314071826E+01 -0.49356681914E+01  0.56495476492E+01  0.00000000000E+00 0. -1.
</event>
<event>
 7    1  0.5972636E-013  0.5052886E+02  0.7816164E-02  0.1300439E+00
        -11   -1    0    0    0    0  0.00000000000E+00  0.00000000000E+00  0.45593999997E+02  0.45594000000E+02  0.51100000000E-03 0.  1.
         11   -1    0    0    0    0 -0.00000000000E+00 -0.00000000000E+00 -0.45593999997E+02  0.45594000000E+02  0.51100000000E-03 0. -1.
    9900012    2    1    2    0    0 -0.22141546430E+02  0.33362467928E+02 -0.70613748136E+01  0.50528863772E+02  0.30000011922E+02 0.  0.
         12    1    1    2    0    0  0.22141546430E+02 -0.33362467928E+02  0.70613748136E+01  0.40659136228E+02  0.00000000000E+00 0. -1.
         11    1    3    3    0    0 -0.13068256801E+02  0.37013735380E+01 -0.36103188262E+01  0.14053964002E+02  0.51100000000E-03 0. -1.
        -11    1    3    3    0    0 -0.67926726011E+01  0.23558679760E+02  0.57666692219E+01  0.25187422799E+02  0.51100000000E-03 0.  1.
        -12    1    3    3    0    0 -0.22806170285E+01  0.61024146297E+01 -0.92177252092E+01  0.11287476971E+02  0.00000000000E+00 0.  1.
</event>
<event>
 7    1  0.5972636E-013  0.5052885E+02  0.7816164E-02  0.1300439E+00
        -11   -1    0    0    0    0  0.00000000000E+00  0.00000000000E+00  0.45593999997E+02  0.45594000000E+02  0.51100000000E-03 0. -1.
         11   -1    0    0    0    0 -0.00000000000E+00 -0.00000000000E+00 -0.45593999997E+02  0.45594000000E+02  0.51100000000E-03 0.  1.
    9900012    2    1    2    0    0  0.34993926599E+02  0.20701191761E+02  0.22787580956E+00  0.50528853840E+02  0.29999981731E+02 0.  0.
         12    1    1    2    0    0 -0.34993926599E+02 -0.20701191761E+02 -0.22787580956E+00  0.40659146160E+02  0.00000000000E+00 0. -1.
         11    1    3    3    0    0  0.11458595445E+02  0.17125002674E+02  0.59958451566E+01  0.21459619884E+02  0.51100000000E-03 0. -1.
        -11    1    3    3    0    0  0.21292554442E+02  0.55103899510E+00 -0.98918851191E+01  0.23484588779E+02  0.51100000000E-03 0.  1.
        -12    1    3    3    0    0  0.22427767115E+01  0.30251500915E+01  0.41239157721E+01  0.55846451767E+01  0.00000000000E+00 0.  1.
</event>
<event>
 7    1  0.5972636E-013  0.5052886E+02  0.7816164E-02  0.1300439E+00
        -11   -1    0    0    0    0  0.00000000000E+00  0.00000000000E+00  0.45593999997E+02  0.45594000000E+02  0.51100000000E-03 0.  1.
         11   -1    0    0    0    0 -0.00000000000E+00 -0.00000000000E+00 -0.45593999997E+02  0.45594000000E+02  0.51100000000E-03 0. -1.
    9900012    2    1    2    0    0 -0.30154334316E+02  0.17907882207E+02  0.20571575788E+02  0.50528857688E+02  0.29999993427E+02 0.  0.
         12    1    1    2    0    0  0.30154334316E+02 -0.17907882207E+02 -0.20571575788E+02  0.40659142312E+02  0.00000000000E+00 0. -1.
         11    1    3    3    0    0  0.12444401670E+01  0.67273315931E+01 -0.90133403648E+00  0.69005814972E+01  0.51100000000E-03 0. -1.
        -11    1    3    3    0    0 -0.23704137177E+02 -0.21719535980E+00  0.16986919858E+02  0.29163140086E+02  0.51100000000E-03 0.  1.
        -12    1    3    3    0    0 -0.76946373062E+01  0.11397745974E+02  0.44859899664E+01  0.14465136105E+02  0.00000000000E+00 0.  1.
</event>
<event>
 7    1  0.5972636E-013  0.5052896E+02  0.7816164E-02  0.1300438E+00
        -11   -1    0    0    0    0  0.00000000000E+00  0.00000000000E+00  0.45593999997E+02  0.45594000000E+02  0.51100000000E-03 0. -1.
         11   -1    0    0    0    0 -0.00000000000E+00 -0.00000000000E+00 -0.45593999997E+02  0.45594000000E+02  0.51100000000E-03 0.  1.
    9900012    2    1    2    0    0  0.34647860257E+02 -0.12379752674E+02  0.17303896915E+02  0.50528962319E+02  0.30000311465E+02 0.  0.
         12    1    1    2    0    0 -0.34647860257E+02  0.12379752674E+02 -0.17303896915E+02  0.40659037681E+02  0.00000000000E+00 0. -1.
         11    1    3    3    0    0  0.87283434377E+01  0.11410993712E+01  0.10663608527E+02  0.13827459421E+02  0.51100000000E-03 0. -1.
        -11    1    3    3    0    0 -0.63454294861E+00 -0.16085857213E+01 -0.50499444573E+01  0.53378021750E+01  0.51100000000E-03 0.  1.
        -12    1    3    3    0    0  0.26554059768E+02 -0.11912266324E+02  0.11690232845E+02  0.31363700724E+02  0.00000000000E+00 0.  1.
</event>
<event>
 7    1  0.5972636E-013  0.5052886E+02  0.7816164E-02  0.1300439E+00
        -11   -1    0    0    0    0  0.00000000000E+00  0.00000000000E+00  0.45593999997E+02  0.45594000000E+02  0.51100000000E-03 0.  1.
         11   -1    0    0    0    0 -0.00000000000E+00 -0.00000000000E+00 -0.45593999997E+02  0.45594000000E+02  0.51100000000E-03 0. -1.
    9900012    2    1    2    0    0  0.26245950330E+02 -0.26064761022E+02  0.16880291096E+02  0.50528857075E+02  0.29999991566E+02 0.  0.
         12    1    1    2    0    0 -0.26245950330E+02  0.26064761022E+02 -0.16880291096E+02  0.40659142925E+02  0.00000000000E+00 0. -1.
         11    1    3    3    0    0  0.94029251873E+01 -0.78870538791E+01 -0.74739004622E+01  0.14369405323E+02  0.51100000000E-03 0. -1.
        -11    1    3    3    0    0  0.44394267789E+01 -0.49522890443E+01  0.12124487752E+01  0.67604518485E+01  0.51100000000E-03 0.  1.
         12    1    3    3    0    0  0.12403598364E+02 -0.13225418099E+02  0.23141742783E+02  0.29398999903E+02  0.00000000000E+00 0. -1.
</event>
<event>
 7    1  0.5972636E-013  0.5052888E+02  0.7816164E-02  0.1300439E+00
        -11   -1    0    0    0    0  0.00000000000E+00  0.00000000000E+00  0.45593999997E+02  0.45594000000E+02  0.51100000000E-03 0.  1.
         11   -1    0    0    0    0 -0.00000000000E+00 -0.00000000000E+00 -0.45593999997E+02  0.45594000000E+02  0.51100000000E-03 0. -1.
    9900012    2    1    2    0    0 -0.37035907057E+02  0.79878526466E+01 -0.14754658414E+02  0.50528878682E+02  0.30000057243E+02 0.  0.
         12    1    1    2    0    0  0.37035907057E+02 -0.79878526466E+01  0.14754658414E+02  0.40659121318E+02  0.00000000000E+00 0. -1.
         11    1    3    3    0    0 -0.16013128390E+02  0.13476783966E+02 -0.15766993820E+02  0.26203856229E+02  0.51100000000E-03 0. -1.
        -11    1    3    3    0    0 -0.68698241990E+01 -0.52202549008E+01 -0.37248734612E+01  0.93978842469E+01  0.51100000000E-03 0.  1.
         12    1    3    3    0    0 -0.14152954468E+02 -0.26867641818E+00  0.47372088671E+01  0.14927138206E+02  0.00000000000E+00 0. -1.
</event>
<event>
 7    1  0.5972636E-013  0.5052887E+02  0.7816164E-02  0.1300439E+00
        -11   -1    0    0    0    0  0.00000000000E+00  0.00000000000E+00  0.45593999997E+02  0.45594000000E+02  0.51100000000E-03 0.  1.
         11   -1    0    0    0    0 -0.00000000000E+00 -0.00000000000E+00 -0.45593999997E+02  0.45594000000E+02  0.51100000000E-03 0. -1.
    9900012    2    1    2    0    0  0.28197793885E+02 -0.20369906438E+02  0.21050332712E+02  0.50528866026E+02  0.30000018771E+02 0.  0.
         12    1    1    2    0    0 -0.28197793885E+02  0.20369906438E+02 -0.21050332712E+02  0.40659133974E+02  0.00000000000E+00 0. -1.
         11    1    3    3    0    0  0.16663864209E+00 -0.41604223706E+01  0.65897356355E+01  0.77949662440E+01  0.51100000000E-03 0. -1.
        -11    1    3    3    0    0  0.20234496801E+02  0.17990072286E+01  0.98468426262E+01  0.22575021545E+02  0.51100000000E-03 0.  1.
        -12    1    3    3    0    0  0.77966584418E+01 -0.18008491296E+02  0.46137544502E+01  0.20158878236E+02  0.00000000000E+00 0.  1.
</event>
<event>
 7    1  0.5972636E-013  0.5052886E+02  0.7816164E-02  0.1300439E+00
        -11   -1    0    0    0    0  0.00000000000E+00  0.00000000000E+00  0.45593999997E+02  0.45594000000E+02  0.51100000000E-03 0. -1.
         11   -1    0    0    0    0 -0.00000000000E+00 -0.00000000000E+00 -0.45593999997E+02  0.45594000000E+02  0.51100000000E-03 0.  1.
    9900012    2    1    2    0    0 -0.18783153211E+02 -0.35372082385E+02  0.70124360774E+01  0.50528864292E+02  0.30000013502E+02 0.  0.
         12    1    1    2    0    0  0.18783153211E+02  0.35372082385E+02 -0.70124360774E+01  0.40659135708E+02  0.00000000000E+00 0. -1.
         11    1    3    3    0    0  0.13157326598E+01 -0.14708317783E+02 -0.66741378162E+01  0.16205242370E+02  0.51100000000E-03 0. -1.
        -11    1    3    3    0    0 -0.15754008579E+02 -0.15691856043E+02  0.39874917134E+01  0.22590334721E+02  0.51100000000E-03 0.  1.
         12    1    3    3    0    0 -0.43448772916E+01 -0.49719085592E+01  0.96990821803E+01  0.11733287201E+02  0.00000000000E+00 0. -1.
</event>
<event>
 7    1  0.5972636E-013  0.5052885E+02  0.7816164E-02  0.1300439E+00
        -11   -1    0    0    0    0  0.00000000000E+00  0.00000000000E+00  0.45593999997E+02  0.45594000000E+02  0.51100000000E-03 0.  1.
         11   -1    0    0    0    0 -0.00000000000E+00 -0.00000000000E+00 -0.45593999997E+02  0.45594000000E+02  0.51100000000E-03 0. -1.
    9900012    2    1    2    0    0 -0.23160987091E+02 -0.22912010246E+02 -0.24326422038E+02  0.50528851636E+02  0.29999975033E+02 0.  0.
         12    1    1    2    0    0  0.23160987091E+02  0.22912010246E+02  0.24326422038E+02  0.40659148364E+02  0.00000000000E+00 0. -1.
         11    1    3    3    0    0 -0.12131170093E+02 -0.15706273157E+02  0.21882043663E+01  0.19965984647E+02  0.51100000000E-03 0. -1.
        -11    1    3    3    0    0 -0.85737563516E+01 -0.53764621138E+01 -0.11856308023E+02  0.15588062197E+02  0.51100000000E-03 0.  1.
         12    1    3    3    0    0 -0.24560606460E+01 -0.18292749752E+01 -0.14658318381E+02  0.14974804793E+02  0.00000000000E+00 0. -1.
</event>
<event>
 7    1  0.5972636E-013  0.5052887E+02  0.7816164E-02  0.1300439E+00
        -11   -1    0    0    0    0  0.00000000000E+00  0.00000000000E+00  0.45593999997E+02  0.45594000000E+02  0.51100000000E-03 0. -1.
         11   -1    0    0    0    0 -0.00000000000E+00 -0.00000000000E+00 -0.45593999997E+02  0.45594000000E+02  0.51100000000E-03 0.  1.
    9900012    2    1    2    0    0  0.10178082790E+02 -0.39111487670E+02 -0.44568366458E+01  0.50528865357E+02  0.30000016738E+02 0.  0.
         12    1    1    2    0    0 -0.10178082790E+02  0.39111487670E+02  0.44568366458E+01  0.40659134643E+02  0.00000000000E+00 0. -1.
         11    1    3    3    0    0  0.12419162172E+02 -0.14679783964E+02  0.84828734635E+01  0.21016440915E+02  0.51100000000E-03 0. -1.
        -11    1    3    3    0    0  0.36654969222E+01 -0.65586740981E+01 -0.53138113809E+01  0.92026444713E+01  0.51100000000E-03 0.  1.
         12    1    3    3    0    0 -0.59065763042E+01 -0.17873029608E+02 -0.76258987284E+01  0.20309779970E+02  0.00000000000E+00 0. -1.
</event>
<event>
 7    1  0.5972636E-013  0.5052885E+02  0.7816164E-02  0.1300439E+00
        -11   -1    0    0    0    0  0.00000000000E+00  0.00000000000E+00  0.45593999997E+02  0.45594000000E+02  0.51100000000E-03 0.  1.
         11   -1    0    0    0    0 -0.00000000000E+00 -0.00000000000E+00 -0.45593999997E+02  0.45594000000E+02  0.51100000000E-03 0. -1.
    9900012    2    1    2    0    0 -0.12922268643E+02  0.22953656322E+02  0.30972753985E+02  0.50528845375E+02  0.29999956001E+02 0.  0.
         12    1    1    2    0    0  0.12922268643E+02 -0.22953656322E+02 -0.30972753985E+02  0.40659154625E+02  0.00000000000E+00 0. -1.
         11    1    3    3    0    0 -0.12282874742E+02 -0.21341518641E+01  0.52690249007E+01  0.13534631128E+02  0.51100000000E-03 0. -1.
        -11    1    3    3    0    0  0.31469211037E+01  0.20074601563E+02  0.19357157428E+02  0.28064074620E+02  0.51100000000E-03 0.  1.
        -12    1    3    3    0    0 -0.37863150045E+01  0.50132066233E+01  0.63465716558E+01  0.89301396262E+01  0.00000000000E+00 0.  1.
</event>
<event>
 7    1  0.5972636E-013  0.5052885E+02  0.7816164E-02  0.1300439E+00
        -11   -1    0    0    0    0  0.00000000000E+00  0.00000000000E+00  0.45593999997E+02  0.45594000000E+02  0.51100000000E-03 0. -1.
         11   -1    0    0    0    0 -0.00000000000E+00 -0.00000000000E+00 -0.45593999997E+02  0.45594000000E+02  0.51100000000E-03 0.  1.
    9900012    2    1    2    0    0 -0.25645813607E+02 -0.31288010071E+02  0.40643992780E+01  0.50528847632E+02  0.29999962864E+02 0.  0.
         12    1    1    2    0    0  0.25645813607E+02  0.31288010071E+02 -0.40643992780E+01  0.40659152368E+02  0.00000000000E+00 0. -1.
         11    1    3    3    0    0  0.41657167170E+01 -0.87015397249E+00  0.29095279474E+01  0.51551640944E+01  0.51100000000E-03 0. -1.
        -11    1    3    3    0    0 -0.20437512516E+02 -0.28225244009E+02  0.45975775840E+01  0.35149595120E+02  0.51100000000E-03 0.  1.
         12    1    3    3    0    0 -0.93740178074E+01 -0.21926120900E+01 -0.34427062534E+01  0.10224088418E+02  0.00000000000E+00 0. -1.
</event>
<event>
 7    1  0.5972636E-013  0.5052882E+02  0.7816164E-02  0.1300439E+00
        -11   -1    0    0    0    0  0.00000000000E+00  0.00000000000E+00  0.45593999997E+02  0.45594000000E+02  0.51100000000E-03 0.  1.
         11   -1    0    0    0    0 -0.00000000000E+00 -0.00000000000E+00 -0.45593999997E+02  0.45594000000E+02  0.51100000000E-03 0. -1.
    9900012    2    1    2    0    0  0.58227031033E+01 -0.89429684970E+00  0.40230156600E+02  0.50528817294E+02  0.29999870646E+02 0.  0.
         12    1    1    2    0    0 -0.58227031033E+01  0.89429684970E+00 -0.40230156600E+02  0.40659182706E+02  0.00000000000E+00 0. -1.
         11    1    3    3    0    0  0.54220849329E+00  0.42866904475E+01 -0.30949609994E+01  0.53149307514E+01  0.51100000000E-03 0. -1.
        -11    1    3    3    0    0 -0.19573480815E+00 -0.70921794966E+01  0.22131780051E+02  0.23241192108E+02  0.51100000000E-03 0.  1.
         12    1    3    3    0    0  0.54762294181E+01  0.19111921994E+01  0.21193337549E+02  0.21972694435E+02  0.00000000000E+00 0. -1.
</event>
<event>
 7    1  0.5972636E-013  0.5052886E+02  0.7816164E-02  0.1300439E+00
        -11   -1    0    0    0    0  0.00000000000E+00  0.00000000000E+00  0.45593999997E+02  0.45594000000E+02  0.51100000000E-03 0.  1.
         11   -1    0    0    0    0 -0.00000000000E+00 -0.00000000000E+00 -0.45593999997E+02  0.45594000000E+02  0.51100000000E-03 0. -1.
    9900012    2    1    2    0    0 -0.21221009969E+02 -0.64609718177E+01  0.34074773863E+02  0.50528860379E+02  0.30000001607E+02 0.  0.
         12    1    1    2    0    0  0.21221009969E+02  0.64609718177E+01 -0.34074773863E+02  0.40659139621E+02  0.00000000000E+00 0. -1.
         11    1    3    3    0    0 -0.15635291443E+01  0.88971773603E+01  0.17941556901E+01  0.92099610893E+01  0.51100000000E-03 0. -1.
        -11    1    3    3    0    0 -0.12954536882E+02 -0.60749824800E+01  0.16883288346E+02  0.22130767352E+02  0.51100000000E-03 0.  1.
         12    1    3    3    0    0 -0.67029439425E+01 -0.92831666979E+01  0.15397329827E+02  0.19188131937E+02  0.00000000000E+00 0. -1.
</event>
<event>
 7    1  0.5972636E-013  0.5052886E+02  0.7816164E-02  0.1300439E+00
        -11   -1    0    0    0    0  0.00000000000E+00  0.00000000000E+00  0.45593999997E+02  0.45594000000E+02  0.51100000000E-03 0.  1.
         11   -1    0    0    0    0 -0.00000000000E+00 -0.00000000000E+00 -0.45593999997E+02  0.45594000000E+02  0.51100000000E-03 0. -1.
    9900012    2    1    2    0    0  0.39557387006E+00  0.39524657001E+02  0.95294617554E+01  0.50528860424E+02  0.30000001745E+02 0.  0.
         12    1    1    2    0    0 -0.39557387006E+00 -0.39524657001E+02 -0.95294617554E+01  0.40659139576E+02  0.00000000000E+00 0. -1.
         11    1    3    3    0    0 -0.82857060643E+01  0.13682836992E+02  0.13570446556E+02  0.20976891408E+02  0.51100000000E-03 0. -1.
        -11    1    3    3    0    0  0.59063593968E+01  0.12026965441E+02  0.31030685209E+01  0.13753618198E+02  0.51100000000E-03 0.  1.
         12    1    3    3    0    0  0.27749205376E+01  0.13814854568E+02 -0.71440533216E+01  0.15798350818E+02  0.00000000000E+00 0. -1.
</event>
<event>
 7    1  0.5972636E-013  0.5052894E+02  0.7816164E-02  0.1300439E+00
        -11   -1    0    0    0    0  0.00000000000E+00  0.00000000000E+00  0.45593999997E+02  0.45594000000E+02  0.51100000000E-03 0.  1.
         11   -1    0    0    0    0 -0.00000000000E+00 -0.00000000000E+00 -0.45593999997E+02  0.45594000000E+02  0.51100000000E-03 0. -1.
    9900012    2    1    2    0    0  0.16024854292E+02 -0.20163869510E+01  0.37313502975E+02  0.50528938579E+02  0.30000239303E+02 0.  0.
         12    1    1    2    0    0 -0.16024854292E+02  0.20163869510E+01 -0.37313502975E+02  0.40659061421E+02  0.00000000000E+00 0. -1.
         11    1    3    3    0    0 -0.13288472938E+01  0.89790755452E+01  0.10970692090E+02  0.14238880503E+02  0.51100000000E-03 0.  1.
        -11    1    3    3    0    0  0.11954662015E+02 -0.11900380197E+02  0.11355427706E+02  0.20334176437E+02  0.51100000000E-03 0. -1.
        -12    1    3    3    0    0  0.53990395704E+01  0.90491770064E+00  0.14987383179E+02  0.15955881639E+02  0.00000000000E+00 0.  1.
</event>
<event>
 7    1  0.5972636E-013  0.5052886E+02  0.7816164E-02  0.1300439E+00
        -11   -1    0    0    0    0  0.00000000000E+00  0.00000000000E+00  0.45593999997E+02  0.45594000000E+02  0.51100000000E-03 0.  1.
         11   -1    0    0    0    0 -0.00000000000E+00 -0.00000000000E+00 -0.45593999997E+02  0.45594000000E+02  0.51100000000E-03 0. -1.
    9900012    2    1    2    0    0  0.23627388759E+02  0.14219803717E+02  0.29878238957E+02  0.50528862276E+02  0.30000007373E+02 0.  0.
         12    1    1    2    0    0 -0.23627388759E+02 -0.14219803717E+02 -0.29878238957E+02  0.40659137724E+02  0.00000000000E+00 0. -1.
         11    1    3    3    0    0  0.12376855388E+02 -0.52676015539E+01  0.96572346913E+01  0.16558875492E+02  0.51100000000E-03 0. -1.
        -11    1    3    3    0    0  0.90648671151E+01  0.20179178385E+02  0.11459811045E+02  0.24913817964E+02  0.51100000000E-03 0.  1.
        -12    1    3    3    0    0  0.21856662565E+01 -0.69177311409E+00  0.87611932207E+01  0.90561688189E+01  0.00000000000E+00 0.  1.
</event>
<event>
 7    1  0.5972636E-013  0.5052886E+02  0.7816164E-02  0.1300439E+00
        -11   -1    0    0    0    0  0.00000000000E+00  0.00000000000E+00  0.45593999997E+02  0.45594000000E+02  0.51100000000E-03 0. -1.
         11   -1    0    0    0    0 -0.00000000000E+00 -0.00000000000E+00 -0.45593999997E+02  0.45594000000E+02  0.51100000000E-03 0.  1.
    9900012    2    1    2    0    0  0.31826753697E+02 -0.74523367364E+00 -0.25291658818E+02  0.50528860439E+02  0.30000001789E+02 0.  0.
         12    1    1    2    0    0 -0.31826753697E+02  0.74523367364E+00  0.25291658818E+02  0.40659139561E+02  0.00000000000E+00 0. -1.
         11    1    3    3    0    0  0.19681558433E+02  0.62685448388E+01 -0.91192928341E+01  0.22579191722E+02  0.51100000000E-03 0. -1.
        -11    1    3    3    0    0 -0.39408457183E+01 -0.35681927247E+01 -0.69319232890E+00  0.53612293518E+01  0.51100000000E-03 0.  1.
        -12    1    3    3    0    0  0.16086040982E+02 -0.34455857878E+01 -0.15479173655E+02  0.22588439365E+02  0.00000000000E+00 0.  1.
</event>
<event>
 7    1  0.5972636E-013  0.5052885E+02  0.7816164E-02  0.1300439E+00
        -11   -1    0    0    0    0  0.00000000000E+00  0.00000000000E+00  0.45593999997E+02  0.45594000000E+02  0.51100000000E-03 0.  1.
         11   -1    0    0    0    0 -0.00000000000E+00 -0.00000000000E+00 -0.45593999997E+02  0.45594000000E+02  0.51100000000E-03 0. -1.
    9900012    2    1    2    0    0 -0.29267648297E+00 -0.36217532457E+02  0.18476226140E+02  0.50528852822E+02  0.29999978638E+02 0.  0.
         12    1    1    2    0    0  0.29267648297E+00  0.36217532457E+02 -0.18476226140E+02  0.40659147178E+02  0.00000000000E+00 0. -1.
         11    1    3    3    0    0  0.12875942915E+01  0.79187078058E+00 -0.11660391941E+01  0.19090851358E+01  0.51100000000E-03 0. -1.
        -11    1    3    3    0    0  0.29073908494E+01 -0.34310605340E+02  0.72808639620E+01  0.35194907880E+02  0.51100000000E-03 0.  1.
        -12    1    3    3    0    0 -0.44876616238E+01 -0.26987978980E+01  0.12361401372E+02  0.13424859807E+02  0.00000000000E+00 0.  1.
</event>
<event>
 7    1  0.5972636E-013  0.5052886E+02  0.7816164E-02  0.1300439E+00
        -11   -1    0    0    0    0  0.00000000000E+00  0.00000000000E+00  0.45593999997E+02  0.45594000000E+02  0.51100000000E-03 0.  1.
         11   -1    0    0    0    0 -0.00000000000E+00 -0.00000000000E+00 -0.45593999997E+02  0.45594000000E+02  0.51100000000E-03 0. -1.
    9900012    2    1    2    0    0  0.36794087812E+02  0.17234612628E+02 -0.15260338704E+01  0.50528861424E+02  0.30000004785E+02 0.  0.
         12    1    1    2    0    0 -0.36794087812E+02 -0.17234612628E+02  0.15260338704E+01  0.40659138576E+02  0.00000000000E+00 0. -1.
         11    1    3    3    0    0  0.14506480130E+02  0.10939255702E+02 -0.11939033722E+02  0.21740418753E+02  0.51100000000E-03 0. -1.
        -11    1    3    3    0    0  0.16235149999E+02  0.10040088284E+02  0.10255821927E+02  0.21669456659E+02  0.51100000000E-03 0.  1.
         12    1    3    3    0    0  0.60524576825E+01 -0.37447313578E+01  0.15717792520E+00  0.71189860121E+01  0.00000000000E+00 0. -1.
</event>
<event>
 7    1  0.5972636E-013  0.5052885E+02  0.7816164E-02  0.1300439E+00
        -11   -1    0    0    0    0  0.00000000000E+00  0.00000000000E+00  0.45593999997E+02  0.45594000000E+02  0.51100000000E-03 0.  1.
         11   -1    0    0    0    0 -0.00000000000E+00 -0.00000000000E+00 -0.45593999997E+02  0.45594000000E+02  0.51100000000E-03 0. -1.
    9900012    2    1    2    0    0  0.31336478802E+02 -0.73526373644E+01  0.24842109819E+02  0.50528848506E+02  0.29999965518E+02 0.  0.
         12    1    1    2    0    0 -0.31336478802E+02  0.73526373644E+01 -0.24842109819E+02  0.40659151494E+02  0.00000000000E+00 0. -1.
         11    1    3    3    0    0  0.12292527551E+02  0.88264068093E+01  0.60232015565E+00  0.15145114083E+02  0.51100000000E-03 0. -1.
        -11    1    3    3    0    0  0.83597118015E+01 -0.98567455786E+01  0.91097709089E+01  0.15812278175E+02  0.51100000000E-03 0.  1.
         12    1    3    3    0    0  0.10684239450E+02 -0.63222985952E+01  0.15130018755E+02  0.19571456248E+02  0.00000000000E+00 0. -1.
</event>
<event>
 7    1  0.5972636E-013  0.5052885E+02  0.7816164E-02  0.1300439E+00
        -11   -1    0    0    0    0  0.00000000000E+00  0.00000000000E+00  0.45593999997E+02  0.45594000000E+02  0.51100000000E-03 0.  1.
         11   -1    0    0    0    0 -0.00000000000E+00 -0.00000000000E+00 -0.45593999997E+02  0.45594000000E+02  0.51100000000E-03 0. -1.
    9900012    2    1    2    0    0  0.16435740759E+02 -0.15676433227E+02  0.33723614429E+02  0.50528852159E+02  0.29999976623E+02 0.  0.
         12    1    1    2    0    0 -0.16435740759E+02  0.15676433227E+02 -0.33723614429E+02  0.40659147841E+02  0.00000000000E+00 0. -1.
         11    1    3    3    0    0 -0.11946468827E+00 -0.11067810435E+02  0.94359670994E+01  0.14544695769E+02  0.51100000000E-03 0. -1.
        -11    1    3    3    0    0  0.17977187019E+02 -0.96123369101E+01  0.14895926004E+02  0.25248066972E+02  0.51100000000E-03 0.  1.
         12    1    3    3    0    0 -0.14219815723E+01  0.50037141182E+01  0.93917213248E+01  0.10736089419E+02  0.00000000000E+00 0. -1.
</event>
<event>
 7    1  0.5972636E-013  0.5052886E+02  0.7816164E-02  0.1300439E+00
        -11   -1    0    0    0    0  0.00000000000E+00  0.00000000000E+00  0.45593999997E+02  0.45594000000E+02  0.51100000000E-03 0. -1.
         11   -1    0    0    0    0 -0.00000000000E+00 -0.00000000000E+00 -0.45593999997E+02  0.45594000000E+02  0.51100000000E-03 0.  1.
    9900012    2    1    2    0    0  0.24649414686E+02 -0.25703225949E+02 -0.19619290069E+02  0.50528855747E+02  0.29999987529E+02 0.  0.
         12    1    1    2    0    0 -0.24649414686E+02  0.25703225949E+02  0.19619290069E+02  0.40659144253E+02  0.00000000000E+00 0. -1.
         11    1    3    3    0    0  0.65931209602E+01 -0.26754285955E+01 -0.47740557536E+01  0.85684754049E+01  0.51100000000E-03 0. -1.
        -11    1    3    3    0    0  0.13800600855E+02 -0.28829892343E+02 -0.13187253231E+02  0.34576334746E+02  0.51100000000E-03 0.  1.
        -12    1    3    3    0    0  0.42556928715E+01  0.58020949896E+01 -0.16579810847E+01  0.73840455959E+01  0.00000000000E+00 0.  1.
</event>
<event>
 7    1  0.5972636E-013  0.5052886E+02  0.7816164E-02  0.1300439E+00
        -11   -1    0    0    0    0  0.00000000000E+00  0.00000000000E+00  0.45593999997E+02  0.45594000000E+02  0.51100000000E-03 0.  1.
         11   -1    0    0    0    0 -0.00000000000E+00 -0.00000000000E+00 -0.45593999997E+02  0.45594000000E+02  0.51100000000E-03 0. -1.
    9900012    2    1    2    0    0  0.82638671954E+01  0.22523795616E+02  0.32826104520E+02  0.50528855789E+02  0.29999987657E+02 0.  0.
         12    1    1    2    0    0 -0.82638671954E+01 -0.22523795616E+02 -0.32826104520E+02  0.40659144211E+02  0.00000000000E+00 0. -1.
         11    1    3    3    0    0  0.55083042049E+00 -0.54771942898E+01  0.59509853083E+01  0.81066206178E+01  0.51100000000E-03 0. -1.
        -11    1    3    3    0    0  0.31449671778E+01  0.23409374543E+02  0.12654295635E+02  0.26795910758E+02  0.51100000000E-03 0.  1.
        -12    1    3    3    0    0  0.45680695971E+01  0.45916153626E+01  0.14220823577E+02  0.15626324414E+02  0.00000000000E+00 0.  1.
</event>
<event>
 7    1  0.5972636E-013  0.5052887E+02  0.7816164E-02  0.1300439E+00
        -11   -1    0    0    0    0  0.00000000000E+00  0.00000000000E+00  0.45593999997E+02  0.45594000000E+02  0.51100000000E-03 0.  1.
         11   -1    0    0    0    0 -0.00000000000E+00 -0.00000000000E+00 -0.45593999997E+02  0.45594000000E+02  0.51100000000E-03 0. -1.
    9900012    2    1    2    0    0 -0.16261385582E+01  0.31636796988E+02  0.25487905067E+02  0.50528873657E+02  0.30000041968E+02 0.  0.
         12    1    1    2    0    0  0.16261385582E+01 -0.31636796988E+02 -0.25487905067E+02  0.40659126343E+02  0.00000000000E+00 0. -1.
         11    1    3    3    0    0  0.55964234545E+01  0.28142082135E+02  0.92661815912E+01  0.30152261340E+02  0.51100000000E-03 0. -1.
        -11    1    3    3    0    0  0.19249364382E+01  0.69671442965E+00  0.61695192406E+01  0.65002891635E+01  0.51100000000E-03 0.  1.
         12    1    3    3    0    0 -0.91474984509E+01  0.27980004238E+01  0.10052204235E+02  0.13876323154E+02  0.00000000000E+00 0. -1.
</event>
<event>
 7    1  0.5972636E-013  0.5052877E+02  0.7816164E-02  0.1300439E+00
        -11   -1    0    0    0    0  0.00000000000E+00  0.00000000000E+00  0.45593999997E+02  0.45594000000E+02  0.51100000000E-03 0.  1.
         11   -1    0    0    0    0 -0.00000000000E+00 -0.00000000000E+00 -0.45593999997E+02  0.45594000000E+02  0.51100000000E-03 0. -1.
    9900012    2    1    2    0    0  0.18061452501E+02  0.33330774826E+02  0.14697499883E+02  0.50528768333E+02  0.29999721824E+02 0.  0.
         12    1    1    2    0    0 -0.18061452501E+02 -0.33330774826E+02 -0.14697499883E+02  0.40659231667E+02  0.00000000000E+00 0. -1.
         11    1    3    3    0    0 -0.85828471339E-02 -0.18980073111E+01 -0.58802393915E-01  0.18989374399E+01  0.51100000000E-03 0. -1.
        -11    1    3    3    0    0  0.16301688894E+02  0.38642224484E+02  0.15503084921E+02  0.44713669232E+02  0.51100000000E-03 0.  1.
        -12    1    3    3    0    0  0.17683464541E+01 -0.34134423470E+01 -0.74678264422E+00  0.39161616610E+01  0.00000000000E+00 0.  1.
</event>
<event>
 7    1  0.5972636E-013  0.5052886E+02  0.7816164E-02  0.1300439E+00
        -11   -1    0    0    0    0  0.00000000000E+00  0.00000000000E+00  0.45593999997E+02  0.45594000000E+02  0.51100000000E-03 0.  1.
         11   -1    0    0    0    0 -0.00000000000E+00 -0.00000000000E+00 -0.45593999997E+02  0.45594000000E+02  0.51100000000E-03 0. -1.
    9900012    2    1    2    0    0  0.76499427142E+01  0.19351834729E+01  0.39886073998E+02  0.50528862557E+02  0.30000008229E+02 0.  0.
         12    1    1    2    0    0 -0.76499427142E+01 -0.19351834729E+01 -0.39886073998E+02  0.40659137443E+02  0.00000000000E+00 0. -1.
         11    1    3    3    0    0  0.55569450420E+01  0.14377900396E+01  0.37442071981E+02  0.37879488287E+02  0.51100000000E-03 0. -1.
        -11    1    3    3    0    0  0.67250995110E+01 -0.41875106271E-01 -0.10705677559E+01  0.68099069405E+01  0.51100000000E-03 0.  1.
         12    1    3    3    0    0 -0.46321018388E+01  0.53926853965E+00  0.35145697733E+01  0.58394673297E+01  0.00000000000E+00 0. -1.
</event>
<event>
 7    1  0.5972636E-013  0.5052886E+02  0.7816164E-02  0.1300439E+00
        -11   -1    0    0    0    0  0.00000000000E+00  0.00000000000E+00  0.45593999997E+02  0.45594000000E+02  0.51100000000E-03 0. -1.
         11   -1    0    0    0    0 -0.00000000000E+00 -0.00000000000E+00 -0.45593999997E+02  0.45594000000E+02  0.51100000000E-03 0.  1.
    9900012    2    1    2    0    0  0.24151219553E+02  0.32231882809E+02 -0.55668518934E+01  0.50528861848E+02  0.30000006073E+02 0.  0.
         12    1    1    2    0    0 -0.24151219553E+02 -0.32231882809E+02  0.55668518934E+01  0.40659138152E+02  0.00000000000E+00 0. -1.
         11    1    3    3    0    0 -0.29302831708E+01  0.54839852685E+01 -0.54196240738E+01  0.82482106695E+01  0.51100000000E-03 0. -1.
        -11    1    3    3    0    0  0.25840563337E+02  0.23757438314E+02  0.57338653031E+01  0.35567229304E+02  0.51100000000E-03 0.  1.
        -12    1    3    3    0    0  0.12409393869E+01  0.29904592260E+01 -0.58810931227E+01  0.67134218743E+01  0.00000000000E+00 0.  1.
</event>
<event>
 7    1  0.5972636E-013  0.5052886E+02  0.7816164E-02  0.1300439E+00
        -11   -1    0    0    0    0  0.00000000000E+00  0.00000000000E+00  0.45593999997E+02  0.45594000000E+02  0.51100000000E-03 0.  1.
         11   -1    0    0    0    0 -0.00000000000E+00 -0.00000000000E+00 -0.45593999997E+02  0.45594000000E+02  0.51100000000E-03 0. -1.
    9900012    2    1    2    0    0 -0.72035598909E+00  0.40256334274E+02  0.56633898428E+01  0.50528863924E+02  0.30000012384E+02 0.  0.
         12    1    1    2    0    0  0.72035598909E+00 -0.40256334274E+02 -0.56633898428E+01  0.40659136076E+02  0.00000000000E+00 0. -1.
         11    1    3    3    0    0  0.10219505927E+02  0.10237940513E+02  0.91137184680E+01  0.17097180817E+02  0.51100000000E-03 0. -1.
        -11    1    3    3    0    0 -0.36579996822E+01  0.11369147668E+02  0.31494758818E+01  0.12351424168E+02  0.51100000000E-03 0.  1.
         12    1    3    3    0    0 -0.72818622335E+01  0.18649246093E+02 -0.65998045070E+01  0.21080258939E+02  0.00000000000E+00 0. -1.
</event>
<event>
 7    1  0.5972636E-013  0.5052887E+02  0.7816164E-02  0.1300439E+00
        -11   -1    0    0    0    0  0.00000000000E+00  0.00000000000E+00  0.45593999997E+02  0.45594000000E+02  0.51100000000E-03 0. -1.
         11   -1    0    0    0    0 -0.00000000000E+00 -0.00000000000E+00 -0.45593999997E+02  0.45594000000E+02  0.51100000000E-03 0.  1.
    9900012    2    1    2    0    0  0.37618030249E+02  0.14064868848E+02 -0.63425823267E+01  0.50528867126E+02  0.30000022115E+02 0.  0.
         12    1    1    2    0    0 -0.37618030249E+02 -0.14064868848E+02  0.63425823267E+01  0.40659132874E+02  0.00000000000E+00 0. -1.
         11    1    3    3    0    0 -0.59538060544E+00  0.11173819641E+02  0.11076516068E+01  0.11244359288E+02  0.51100000000E-03 0.  1.
        -11    1    3    3    0    0  0.26431731811E+02  0.11772083851E+01 -0.70093657664E+01  0.27370668147E+02  0.51100000000E-03 0. -1.
        -12    1    3    3    0    0  0.11781679043E+02  0.17138408219E+01 -0.44086816708E+00  0.11913839691E+02  0.00000000000E+00 0.  1.
</event>
<event>
 7    1  0.5972636E-013  0.5052886E+02  0.7816164E-02  0.1300439E+00
        -11   -1    0    0    0    0  0.00000000000E+00  0.00000000000E+00  0.45593999997E+02  0.45594000000E+02  0.51100000000E-03 0. -1.
         11   -1    0    0    0    0 -0.00000000000E+00 -0.00000000000E+00 -0.45593999997E+02  0.45594000000E+02  0.51100000000E-03 0.  1.
    9900012    2    1    2    0    0  0.37363064105E+02 -0.12903586188E+02 -0.95217748094E+01  0.50528864601E+02  0.30000014443E+02 0.  0.
         12    1    1    2    0    0 -0.37363064105E+02  0.12903586188E+02  0.95217748094E+01  0.40659135399E+02  0.00000000000E+00 0. -1.
         11    1    3    3    0    0  0.14350999004E+00  0.51867388055E+01 -0.54300028543E+01  0.75105116878E+01  0.51100000000E-03 0. -1.
        -11    1    3    3    0    0  0.30785835651E+02 -0.17535798941E+02 -0.66931746031E+01  0.36056490508E+02  0.51100000000E-03 0.  1.
        -12    1    3    3    0    0  0.64337184643E+01 -0.55452605294E+00  0.26014026480E+01  0.69618624059E+01  0.00000000000E+00 0.  1.
</event>
<event>
 7    1  0.5972636E-013  0.5052886E+02  0.7816164E-02  0.1300439E+00
        -11   -1    0    0    0    0  0.00000000000E+00  0.00000000000E+00  0.45593999997E+02  0.45594000000E+02  0.51100000000E-03 0. -1.
         11   -1    0    0    0    0 -0.00000000000E+00 -0.00000000000E+00 -0.45593999997E+02  0.45594000000E+02  0.51100000000E-03 0.  1.
    9900012    2    1    2    0    0  0.35343885614E+02 -0.18336149073E+02 -0.82317119912E+01  0.50528859632E+02  0.29999999338E+02 0.  0.
         12    1    1    2    0    0 -0.35343885614E+02  0.18336149073E+02  0.82317119912E+01  0.40659140368E+02  0.00000000000E+00 0. -1.
         11    1    3    3    0    0  0.12635725928E+02  0.18972784354E+01  0.72715989161E+01  0.14701611689E+02  0.51100000000E-03 0. -1.
        -11    1    3    3    0    0  0.14604054350E+02 -0.60293851623E+01 -0.59175105932E+01  0.16871538779E+02  0.51100000000E-03 0.  1.
         12    1    3    3    0    0  0.81041053367E+01 -0.14204042346E+02 -0.95858003141E+01  0.18955709165E+02  0.00000000000E+00 0. -1.
</event>
<event>
 7    1  0.5972636E-013  0.5052886E+02  0.7816164E-02  0.1300439E+00
        -11   -1    0    0    0    0  0.00000000000E+00  0.00000000000E+00  0.45593999997E+02  0.45594000000E+02  0.51100000000E-03 0. -1.
         11   -1    0    0    0    0 -0.00000000000E+00 -0.00000000000E+00 -0.45593999997E+02  0.45594000000E+02  0.51100000000E-03 0.  1.
    9900012    2    1    2    0    0 -0.19061892781E+02  0.35913751183E+02 -0.11204363132E+00  0.50528857926E+02  0.29999994151E+02 0.  0.
         12    1    1    2    0    0  0.19061892781E+02 -0.35913751183E+02  0.11204363132E+00  0.40659142074E+02  0.00000000000E+00 0. -1.
         11    1    3    3    0    0 -0.29386413583E+01 -0.28280653777E+01  0.25176535913E+01  0.47929267343E+01  0.51100000000E-03 0. -1.
        -11    1    3    3    0    0 -0.12105034660E+02  0.36483129058E+02  0.28867037971E+01  0.38547161102E+02  0.51100000000E-03 0.  1.
        -12    1    3    3    0    0 -0.40182167627E+01  0.22586875036E+01 -0.55164010197E+01  0.71887700896E+01  0.00000000000E+00 0.  1.
</event>
<event>
 7    1  0.5972636E-013  0.5052887E+02  0.7816164E-02  0.1300439E+00
        -11   -1    0    0    0    0  0.00000000000E+00  0.00000000000E+00  0.45593999997E+02  0.45594000000E+02  0.51100000000E-03 0.  1.
         11   -1    0    0    0    0 -0.00000000000E+00 -0.00000000000E+00 -0.45593999997E+02  0.45594000000E+02  0.51100000000E-03 0. -1.
    9900012    2    1    2    0    0 -0.16498171479E+02  0.36700037829E+02  0.58380444784E+01  0.50528865699E+02  0.30000017778E+02 0.  0.
         12    1    1    2    0    0  0.16498171479E+02 -0.36700037829E+02 -0.58380444784E+01  0.40659134301E+02  0.00000000000E+00 0. -1.
         11    1    3    3    0    0 -0.18321974074E+02  0.14823713586E+02 -0.19646596815E+01  0.23649463131E+02  0.51100000000E-03 0. -1.
        -11    1    3    3    0    0 -0.16420957440E+01  0.22181919285E+02  0.67571232654E+01  0.23246348890E+02  0.51100000000E-03 0.  1.
         12    1    3    3    0    0  0.34658983384E+01 -0.30559504322E+00  0.10455808945E+01  0.36330536783E+01  0.00000000000E+00 0. -1.
</event>
<event>
 7    1  0.5972636E-013  0.5052885E+02  0.7816164E-02  0.1300439E+00
        -11   -1    0    0    0    0  0.00000000000E+00  0.00000000000E+00  0.45593999997E+02  0.45594000000E+02  0.51100000000E-03 0.  1.
         11   -1    0    0    0    0 -0.00000000000E+00 -0.00000000000E+00 -0.45593999997E+02  0.45594000000E+02  0.51100000000E-03 0. -1.
    9900012    2    1    2    0    0  0.23466149990E+02 -0.33159369191E+02 -0.17212451013E+01  0.50528847953E+02  0.29999963837E+02 0.  0.
         12    1    1    2    0    0 -0.23466149990E+02  0.33159369191E+02  0.17212451013E+01  0.40659152047E+02  0.00000000000E+00 0. -1.
         11    1    3    3    0    0 -0.72572412815E-01  0.12338351135E+01  0.47447462213E+00  0.13239117307E+01  0.51100000000E-03 0. -1.
        -11    1    3    3    0    0 -0.35173795893E+01 -0.14405545050E+02  0.31082119446E+01  0.15150995648E+02  0.51100000000E-03 0.  1.
        -12    1    3    3    0    0  0.27056101992E+02 -0.19987659254E+02 -0.53039316680E+01  0.34053940574E+02  0.00000000000E+00 0.  1.
</event>
<event>
 7    1  0.5972636E-013  0.5052879E+02  0.7816164E-02  0.1300439E+00
        -11   -1    0    0    0    0  0.00000000000E+00  0.00000000000E+00  0.45593999997E+02  0.45594000000E+02  0.51100000000E-03 0.  1.
         11   -1    0    0    0    0 -0.00000000000E+00 -0.00000000000E+00 -0.45593999997E+02  0.45594000000E+02  0.51100000000E-03 0. -1.
    9900012    2    1    2    0    0 -0.29507950937E+02 -0.18458723624E+02  0.21017320143E+02  0.50528789575E+02  0.29999786393E+02 0.  0.
         12    1    1    2    0    0  0.29507950937E+02  0.18458723624E+02 -0.21017320143E+02  0.40659210425E+02  0.00000000000E+00 0. -1.
         11    1    3    3    0    0  0.40161393032E+01  0.15078855251E+01 -0.48758579088E-02  0.42898855107E+01  0.51100000000E-03 0. -1.
        -11    1    3    3    0    0 -0.22052512237E+02 -0.13120795419E+02  0.64275237531E+01  0.26453385988E+02  0.51100000000E-03 0.  1.
        -12    1    3    3    0    0 -0.11471578004E+02 -0.68458137300E+01  0.14594672248E+02  0.19785518076E+02  0.00000000000E+00 0.  1.
</event>
<event>
 7    1  0.5972636E-013  0.5052886E+02  0.7816164E-02  0.1300439E+00
        -11   -1    0    0    0    0  0.00000000000E+00  0.00000000000E+00  0.45593999997E+02  0.45594000000E+02  0.51100000000E-03 0.  1.
         11   -1    0    0    0    0 -0.00000000000E+00 -0.00000000000E+00 -0.45593999997E+02  0.45594000000E+02  0.51100000000E-03 0. -1.
    9900012    2    1    2    0    0  0.47085974488E+01  0.36801040428E+02 -0.16633645575E+02  0.50528860417E+02  0.30000001723E+02 0.  0.
         12    1    1    2    0    0 -0.47085974488E+01 -0.36801040428E+02  0.16633645575E+02  0.40659139583E+02  0.00000000000E+00 0. -1.
         11    1    3    3    0    0 -0.59845690115E+00 -0.51035236821E+01 -0.29670615964E+00  0.51470515290E+01  0.51100000000E-03 0. -1.
        -11    1    3    3    0    0  0.35495152186E+01  0.27200309783E+02 -0.91145265009E+01  0.28905544524E+02  0.51100000000E-03 0.  1.
         12    1    3    3    0    0  0.17575391314E+01  0.14704254327E+02 -0.72224129140E+01  0.16476264364E+02  0.00000000000E+00 0. -1.
</event>
<event>
 7    1  0.5972636E-013  0.5052886E+02  0.7816164E-02  0.1300439E+00
        -11   -1    0    0    0    0  0.00000000000E+00  0.00000000000E+00  0.45593999997E+02  0.45594000000E+02  0.51100000000E-03 0.  1.
         11   -1    0    0    0    0 -0.00000000000E+00 -0.00000000000E+00 -0.45593999997E+02  0.45594000000E+02  0.51100000000E-03 0. -1.
    9900012    2    1    2    0    0 -0.86604077912E+01  0.38516934685E+02  0.97267125925E+01  0.50528857627E+02  0.29999993244E+02 0.  0.
         12    1    1    2    0    0  0.86604077912E+01 -0.38516934685E+02 -0.97267125925E+01  0.40659142373E+02  0.00000000000E+00 0. -1.
         11    1    3    3    0    0 -0.16623344936E+02  0.35023050319E+02  0.26851471937E+01  0.38860772846E+02  0.51100000000E-03 0. -1.
        -11    1    3    3    0    0  0.34939281413E+01  0.78089074964E+00  0.10813479480E+01  0.37398713702E+01  0.51100000000E-03 0.  1.
         12    1    3    3    0    0  0.44690090032E+01  0.27129936163E+01  0.59602174508E+01  0.79282134112E+01  0.00000000000E+00 0. -1.
</event>
<event>
 7    1  0.5972636E-013  0.5052886E+02  0.7816164E-02  0.1300439E+00
        -11   -1    0    0    0    0  0.00000000000E+00  0.00000000000E+00  0.45593999997E+02  0.45594000000E+02  0.51100000000E-03 0. -1.
         11   -1    0    0    0    0 -0.00000000000E+00 -0.00000000000E+00 -0.45593999997E+02  0.45594000000E+02  0.51100000000E-03 0.  1.
    9900012    2    1    2    0    0  0.13204503035E+02 -0.20205028920E+02 -0.32719464341E+02  0.50528862763E+02  0.30000008855E+02 0.  0.
         12    1    1    2    0    0 -0.13204503035E+02  0.20205028920E+02  0.32719464341E+02  0.40659137237E+02  0.00000000000E+00 0. -1.
         11    1    3    3    0    0  0.12104331201E+01 -0.23563632134E+01  0.33276263055E+01  0.42533155329E+01  0.51100000000E-03 0. -1.
        -11    1    3    3    0    0  0.16132892702E+02 -0.18653318571E+02 -0.29054031335E+02  0.38109752790E+02  0.51100000000E-03 0.  1.
        -12    1    3    3    0    0 -0.41388227875E+01  0.80465286433E+00 -0.69930593122E+01  0.81657944403E+01  0.00000000000E+00 0.  1.
</event>
<event>
 7    1  0.5972636E-013  0.5052886E+02  0.7816164E-02  0.1300439E+00
        -11   -1    0    0    0    0  0.00000000000E+00  0.00000000000E+00  0.45593999997E+02  0.45594000000E+02  0.51100000000E-03 0.  1.
         11   -1    0    0    0    0 -0.00000000000E+00 -0.00000000000E+00 -0.45593999997E+02  0.45594000000E+02  0.51100000000E-03 0. -1.
    9900012    2    1    2    0    0 -0.49783133685E+01  0.38117777789E+02  0.13244500974E+02  0.50528863344E+02  0.30000010620E+02 0.  0.
         12    1    1    2    0    0  0.49783133685E+01 -0.38117777789E+02 -0.13244500974E+02  0.40659136656E+02  0.00000000000E+00 0. -1.
         11    1    3    3    0    0 -0.15422577642E+02  0.16724662166E+02 -0.51799590820E+00  0.22756066130E+02  0.51100000000E-03 0. -1.
        -11    1    3    3    0    0  0.55746682784E+01  0.71419553709E+01  0.53765320355E+01  0.10535252722E+02  0.51100000000E-03 0.  1.
         12    1    3    3    0    0  0.48695959953E+01  0.14251160252E+02  0.83859648470E+01  0.17237544491E+02  0.00000000000E+00 0. -1.
</event>
<event>
 7    1  0.5972636E-013  0.5052886E+02  0.7816164E-02  0.1300439E+00
        -11   -1    0    0    0    0  0.00000000000E+00  0.00000000000E+00  0.45593999997E+02  0.45594000000E+02  0.51100000000E-03 0.  1.
         11   -1    0    0    0    0 -0.00000000000E+00 -0.00000000000E+00 -0.45593999997E+02  0.45594000000E+02  0.51100000000E-03 0. -1.
    9900012    2    1    2    0    0  0.59067584960E+01  0.27697320744E+02  0.29174212095E+02  0.50528855596E+02  0.29999987069E+02 0.  0.
         12    1    1    2    0    0 -0.59067584960E+01 -0.27697320744E+02 -0.29174212095E+02  0.40659144404E+02  0.00000000000E+00 0. -1.
         11    1    3    3    0    0 -0.41062136275E+01  0.29286080526E+01 -0.37331315824E+01  0.62748710866E+01  0.51100000000E-03 0. -1.
        -11    1    3    3    0    0 -0.57809259884E+00  0.23414121437E+01  0.10680886774E+02  0.10949782848E+02  0.51100000000E-03 0.  1.
         12    1    3    3    0    0  0.10591064722E+02  0.22427300548E+02  0.22226456903E+02  0.33304201661E+02  0.00000000000E+00 0. -1.
</event>
<event>
 7    1  0.5972636E-013  0.5052889E+02  0.7816164E-02  0.1300439E+00
        -11   -1    0    0    0    0  0.00000000000E+00  0.00000000000E+00  0.45593999997E+02  0.45594000000E+02  0.51100000000E-03 0.  1.
         11   -1    0    0    0    0 -0.00000000000E+00 -0.00000000000E+00 -0.45593999997E+02  0.45594000000E+02  0.51100000000E-03 0. -1.
    9900012    2    1    2    0    0  0.28184833306E+02  0.29161226221E+02  0.28985197650E+01  0.50528888352E+02  0.30000086633E+02 0.  0.
         12    1    1    2    0    0 -0.28184833306E+02 -0.29161226221E+02 -0.28985197650E+01  0.40659111648E+02  0.00000000000E+00 0. -1.
         11    1    3    3    0    0  0.27412958982E+02  0.25689875477E+02 -0.26862006496E+01  0.37665046082E+02  0.51100000000E-03 0. -1.
        -11    1    3    3    0    0  0.26955034290E+01  0.34977769938E+01  0.83789545742E+01  0.94713812431E+01  0.51100000000E-03 0.  1.
         12    1    3    3    0    0 -0.19236291050E+01 -0.26426248951E-01 -0.27942341596E+01  0.33924610269E+01  0.00000000000E+00 0. -1.
</event>
<event>
 7    1  0.5972636E-013  0.5052886E+02  0.7816164E-02  0.1300439E+00
        -11   -1    0    0    0    0  0.00000000000E+00  0.00000000000E+00  0.45593999997E+02  0.45594000000E+02  0.51100000000E-03 0.  1.
         11   -1    0    0    0    0 -0.00000000000E+00 -0.00000000000E+00 -0.45593999997E+02  0.45594000000E+02  0.51100000000E-03 0. -1.
    9900012    2    1    2    0    0 -0.37632365368E+02 -0.65429748980E+01  0.13934135475E+02  0.50528861112E+02  0.30000003836E+02 0.  0.
         12    1    1    2    0    0  0.37632365368E+02  0.65429748980E+01 -0.13934135475E+02  0.40659138888E+02  0.00000000000E+00 0. -1.
         11    1    3    3    0    0 -0.38577340681E+01  0.87845365215E+01  0.46992944240E+01  0.10683331053E+02  0.51100000000E-03 0. -1.
        -11    1    3    3    0    0 -0.83619261969E+01 -0.92336851684E+01  0.12502051091E+01  0.12519814878E+02  0.51100000000E-03 0.  1.
         12    1    3    3    0    0 -0.25412705103E+02 -0.60938262511E+01  0.79846359417E+01  0.27325715181E+02  0.00000000000E+00 0. -1.
</event>
<event>
 7    1  0.5972636E-013  0.5052886E+02  0.7816164E-02  0.1300439E+00
        -11   -1    0    0    0    0  0.00000000000E+00  0.00000000000E+00  0.45593999997E+02  0.45594000000E+02  0.51100000000E-03 0.  1.
         11   -1    0    0    0    0 -0.00000000000E+00 -0.00000000000E+00 -0.45593999997E+02  0.45594000000E+02  0.51100000000E-03 0. -1.
    9900012    2    1    2    0    0  0.28920922055E+01  0.97712050228E+01  0.39361463402E+02  0.50528862699E+02  0.30000008658E+02 0.  0.
         12    1    1    2    0    0 -0.28920922055E+01 -0.97712050228E+01 -0.39361463402E+02  0.40659137301E+02  0.00000000000E+00 0. -1.
         11    1    3    3    0    0 -0.25971905560E+00 -0.12598020615E+01  0.83083620427E+01  0.84073441297E+01  0.51100000000E-03 0. -1.
        -11    1    3    3    0    0 -0.14062633685E+01  0.11045195165E+02  0.41066700081E+00  0.11141928044E+02  0.51100000000E-03 0.  1.
        -12    1    3    3    0    0  0.45580746296E+01 -0.14188080866E-01  0.30642434359E+02  0.30979590525E+02  0.00000000000E+00 0.  1.
</event>
<event>
 7    1  0.5972636E-013  0.5052886E+02  0.7816164E-02  0.1300439E+00
        -11   -1    0    0    0    0  0.00000000000E+00  0.00000000000E+00  0.45593999997E+02  0.45594000000E+02  0.51100000000E-03 0. -1.
         11   -1    0    0    0    0 -0.00000000000E+00 -0.00000000000E+00 -0.45593999997E+02  0.45594000000E+02  0.51100000000E-03 0.  1.
    9900012    2    1    2    0    0  0.39174480668E+02 -0.32056575820E+01  0.10404301613E+02  0.50528859968E+02  0.30000000358E+02 0.  0.
         12    1    1    2    0    0 -0.39174480668E+02  0.32056575820E+01 -0.10404301613E+02  0.40659140032E+02  0.00000000000E+00 0. -1.
         11    1    3    3    0    0 -0.85292633854E+00 -0.17959786488E+01 -0.53535145986E+01  0.57107916670E+01  0.51100000000E-03 0. -1.
        -11    1    3    3    0    0  0.36921523989E+02 -0.36110230307E+01  0.10938850340E+02  0.38676825982E+02  0.51100000000E-03 0.  1.
         12    1    3    3    0    0  0.31058830171E+01  0.22013440975E+01  0.48189658709E+01  0.61412423186E+01  0.00000000000E+00 0. -1.
</event>
<event>
 7    1  0.5972636E-013  0.5052886E+02  0.7816164E-02  0.1300439E+00
        -11   -1    0    0    0    0  0.00000000000E+00  0.00000000000E+00  0.45593999997E+02  0.45594000000E+02  0.51100000000E-03 0.  1.
         11   -1    0    0    0    0 -0.00000000000E+00 -0.00000000000E+00 -0.45593999997E+02  0.45594000000E+02  0.51100000000E-03 0. -1.
    9900012    2    1    2    0    0  0.39132768755E+02 -0.10885499014E+02 -0.18160974900E+01  0.50528857248E+02  0.29999992092E+02 0.  0.
         12    1    1    2    0    0 -0.39132768755E+02  0.10885499014E+02  0.18160974900E+01  0.40659142752E+02  0.00000000000E+00 0. -1.
         11    1    3    3    0    0  0.36446874823E+02 -0.17172071169E+02 -0.72670166297E+01  0.40939763599E+02  0.51100000000E-03 0. -1.
        -11    1    3    3    0    0  0.17612069975E+01  0.25858833687E+01  0.24909563341E+00  0.31385811731E+01  0.51100000000E-03 0.  1.
         12    1    3    3    0    0  0.92468693474E+00  0.37006887861E+01  0.52018235062E+01  0.64505124765E+01  0.00000000000E+00 0. -1.
</event>
<event>
 7    1  0.5972636E-013  0.5052886E+02  0.7816164E-02  0.1300439E+00
        -11   -1    0    0    0    0  0.00000000000E+00  0.00000000000E+00  0.45593999997E+02  0.45594000000E+02  0.51100000000E-03 0.  1.
         11   -1    0    0    0    0 -0.00000000000E+00 -0.00000000000E+00 -0.45593999997E+02  0.45594000000E+02  0.51100000000E-03 0. -1.
    9900012    2    1    2    0    0  0.26606573720E+02  0.30743927729E+02  0.25901093440E+00  0.50528856576E+02  0.29999990050E+02 0.  0.
         12    1    1    2    0    0 -0.26606573720E+02 -0.30743927729E+02 -0.25901093440E+00  0.40659143424E+02  0.00000000000E+00 0. -1.
         11    1    3    3    0    0  0.12292164427E+02 -0.36842610110E+01 -0.23580071551E+01  0.13047271113E+02  0.51100000000E-03 0. -1.
        -11    1    3    3    0    0  0.28814437661E+01  0.91754960895E+01  0.15452016077E+01  0.97406414026E+01  0.51100000000E-03 0.  1.
         12    1    3    3    0    0  0.11432965527E+02  0.25252692650E+02  0.10718164818E+01  0.27740944061E+02  0.00000000000E+00 0. -1.
</event>
<event>
 7    1  0.5972636E-013  0.5052886E+02  0.7816164E-02  0.1300439E+00
        -11   -1    0    0    0    0  0.00000000000E+00  0.00000000000E+00  0.45593999997E+02  0.45594000000E+02  0.51100000000E-03 0.  1.
         11   -1    0    0    0    0 -0.00000000000E+00 -0.00000000000E+00 -0.45593999997E+02  0.45594000000E+02  0.51100000000E-03 0. -1.
    9900012    2    1    2    0    0 -0.26819455553E+02 -0.10838417142E+02  0.28572912489E+02  0.50528858218E+02  0.29999995040E+02 0.  0.
         12    1    1    2    0    0  0.26819455553E+02  0.10838417142E+02 -0.28572912489E+02  0.40659141782E+02  0.00000000000E+00 0. -1.
         11    1    3    3    0    0 -0.10383151994E+02  0.24817037196E+00 -0.25545920928E+01  0.10695670848E+02  0.51100000000E-03 0. -1.
        -11    1    3    3    0    0 -0.11732952374E+02 -0.14340833841E+02  0.19641874314E+02  0.27002313113E+02  0.51100000000E-03 0.  1.
         12    1    3    3    0    0 -0.47033511852E+01  0.32542463265E+01  0.11485630268E+02  0.12830874257E+02  0.00000000000E+00 0. -1.
</event>
<event>
 7    1  0.5972636E-013  0.5052886E+02  0.7816164E-02  0.1300439E+00
        -11   -1    0    0    0    0  0.00000000000E+00  0.00000000000E+00  0.45593999997E+02  0.45594000000E+02  0.51100000000E-03 0. -1.
         11   -1    0    0    0    0 -0.00000000000E+00 -0.00000000000E+00 -0.45593999997E+02  0.45594000000E+02  0.51100000000E-03 0.  1.
    9900012    2    1    2    0    0 -0.15908110310E+02  0.83592122194E+01 -0.36472197520E+02  0.50528860874E+02  0.30000003112E+02 0.  0.
         12    1    1    2    0    0  0.15908110310E+02 -0.83592122194E+01  0.36472197520E+02  0.40659139126E+02  0.00000000000E+00 0. -1.
         11    1    3    3    0    0 -0.10666398573E+02  0.34853090383E+01  0.97766465367E+00  0.11263892135E+02  0.51100000000E-03 0.  1.
        -11    1    3    3    0    0 -0.16553972761E+01  0.70057120738E+01 -0.28425825335E+02  0.29323162995E+02  0.51100000000E-03 0. -1.
        -12    1    3    3    0    0 -0.35863144617E+01 -0.21318088927E+01 -0.90240368381E+01  0.99418057429E+01  0.00000000000E+00 0.  1.
</event>
<event>
 7    1  0.5972636E-013  0.5052885E+02  0.7816164E-02  0.1300439E+00
        -11   -1    0    0    0    0  0.00000000000E+00  0.00000000000E+00  0.45593999997E+02  0.45594000000E+02  0.51100000000E-03 0.  1.
         11   -1    0    0    0    0 -0.00000000000E+00 -0.00000000000E+00 -0.45593999997E+02  0.45594000000E+02  0.51100000000E-03 0. -1.
    9900012    2    1    2    0    0  0.34970902082E+02  0.14765810740E+02  0.14566175657E+02  0.50528848109E+02  0.29999964313E+02 0.  0.
         12    1    1    2    0    0 -0.34970902082E+02 -0.14765810740E+02 -0.14566175657E+02  0.40659151891E+02  0.00000000000E+00 0. -1.
         11    1    3    3    0    0  0.21991443929E+01  0.12621534799E+01 -0.34616926224E+01  0.42909886438E+01  0.51100000000E-03 0. -1.
        -11    1    3    3    0    0  0.31063281440E+02  0.18912609367E+02  0.12889994240E+02  0.38584533154E+02  0.51100000000E-03 0.  1.
        -12    1    3    3    0    0  0.17084762485E+01 -0.54089521076E+01  0.51378740390E+01  0.76533263118E+01  0.00000000000E+00 0.  1.
</event>
<event>
 7    1  0.5972636E-013  0.5052886E+02  0.7816164E-02  0.1300439E+00
        -11   -1    0    0    0    0  0.00000000000E+00  0.00000000000E+00  0.45593999997E+02  0.45594000000E+02  0.51100000000E-03 0.  1.
         11   -1    0    0    0    0 -0.00000000000E+00 -0.00000000000E+00 -0.45593999997E+02  0.45594000000E+02  0.51100000000E-03 0. -1.
    9900012    2    1    2    0    0 -0.12090175757E+02  0.19176670414E+02  0.33752755087E+02  0.50528861864E+02  0.30000006123E+02 0.  0.
         12    1    1    2    0    0  0.12090175757E+02 -0.19176670414E+02 -0.33752755087E+02  0.40659138136E+02  0.00000000000E+00 0. -1.
         11    1    3    3    0    0 -0.98955884393E+01  0.74657439617E+01  0.20956481098E+01  0.12571863216E+02  0.51100000000E-03 0. -1.
        -11    1    3    3    0    0  0.75147102004E+01  0.52403380862E+01  0.15895184295E+02  0.18346359221E+02  0.51100000000E-03 0.  1.
         12    1    3    3    0    0 -0.97092975185E+01  0.64705883657E+01  0.15761922682E+02  0.19610639427E+02  0.00000000000E+00 0. -1.
</event>
<event>
 7    1  0.5972636E-013  0.5052885E+02  0.7816164E-02  0.1300439E+00
        -11   -1    0    0    0    0  0.00000000000E+00  0.00000000000E+00  0.45593999997E+02  0.45594000000E+02  0.51100000000E-03 0. -1.
         11   -1    0    0    0    0 -0.00000000000E+00 -0.00000000000E+00 -0.45593999997E+02  0.45594000000E+02  0.51100000000E-03 0.  1.
    9900012    2    1    2    0    0  0.92008078678E+01  0.16503203841E+02 -0.36002164678E+02  0.50528850182E+02  0.29999970612E+02 0.  0.
         12    1    1    2    0    0 -0.92008078678E+01 -0.16503203841E+02  0.36002164678E+02  0.40659149818E+02  0.00000000000E+00 0. -1.
         11    1    3    3    0    0  0.31801715582E+01 -0.36647984372E+01  0.58612493976E+00  0.48875128062E+01  0.51100000000E-03 0. -1.
        -11    1    3    3    0    0  0.25787558786E+01  0.16787988215E+02 -0.37087293728E+02  0.40791590880E+02  0.51100000000E-03 0.  1.
        -12    1    3    3    0    0  0.34418804310E+01  0.33800140635E+01  0.49900411005E+00  0.48497464957E+01  0.00000000000E+00 0.  1.
</event>
<event>
 7    1  0.5972636E-013  0.5052886E+02  0.7816164E-02  0.1300439E+00
        -11   -1    0    0    0    0  0.00000000000E+00  0.00000000000E+00  0.45593999997E+02  0.45594000000E+02  0.51100000000E-03 0. -1.
         11   -1    0    0    0    0 -0.00000000000E+00 -0.00000000000E+00 -0.45593999997E+02  0.45594000000E+02  0.51100000000E-03 0.  1.
    9900012    2    1    2    0    0 -0.36740813334E+02  0.15942344074E+02  0.70085711146E+01  0.50528858739E+02  0.29999996624E+02 0.  0.
         12    1    1    2    0    0  0.36740813334E+02 -0.15942344074E+02 -0.70085711146E+01  0.40659141261E+02  0.00000000000E+00 0. -1.
         11    1    3    3    0    0 -0.40272326155E+01 -0.25427262424E+01  0.51294996514E+01  0.69997018664E+01  0.51100000000E-03 0. -1.
        -11    1    3    3    0    0 -0.33743561703E+02  0.18515644891E+02 -0.29393630582E+01  0.38601773503E+02  0.51100000000E-03 0.  1.
        -12    1    3    3    0    0  0.10299809853E+01 -0.30574574609E-01  0.48184345214E+01  0.49273833697E+01  0.00000000000E+00 0.  1.
</event>
<event>
 7    1  0.5972636E-013  0.5052886E+02  0.7816164E-02  0.1300439E+00
        -11   -1    0    0    0    0  0.00000000000E+00  0.00000000000E+00  0.45593999997E+02  0.45594000000E+02  0.51100000000E-03 0.  1.
         11   -1    0    0    0    0 -0.00000000000E+00 -0.00000000000E+00 -0.45593999997E+02  0.45594000000E+02  0.51100000000E-03 0. -1.
    9900012    2    1    2    0    0  0.23706959745E+02  0.30872189242E+02 -0.11749608826E+02  0.50528864292E+02  0.30000013502E+02 0.  0.
         12    1    1    2    0    0 -0.23706959745E+02 -0.30872189242E+02  0.11749608826E+02  0.40659135708E+02  0.00000000000E+00 0. -1.
         11    1    3    3    0    0  0.62481186192E+01  0.12624871961E+00 -0.10346937102E+02  0.12087763758E+02  0.51100000000E-03 0. -1.
        -11    1    3    3    0    0  0.18997492417E+02  0.21272156306E+02  0.10327130835E+01  0.28539023260E+02  0.51100000000E-03 0.  1.
         12    1    3    3    0    0 -0.15386512913E+01  0.94737842165E+01 -0.24353848075E+01  0.99020772738E+01  0.00000000000E+00 0. -1.
</event>
<event>
 7    1  0.5972636E-013  0.5052888E+02  0.7816164E-02  0.1300439E+00
        -11   -1    0    0    0    0  0.00000000000E+00  0.00000000000E+00  0.45593999997E+02  0.45594000000E+02  0.51100000000E-03 0. -1.
         11   -1    0    0    0    0 -0.00000000000E+00 -0.00000000000E+00 -0.45593999997E+02  0.45594000000E+02  0.51100000000E-03 0.  1.
    9900012    2    1    2    0    0 -0.19215607464E+02 -0.35733332587E+02 -0.26557824518E+01  0.50528882838E+02  0.30000069873E+02 0.  0.
         12    1    1    2    0    0  0.19215607464E+02  0.35733332587E+02  0.26557824518E+01  0.40659117162E+02  0.00000000000E+00 0. -1.
         11    1    3    3    0    0 -0.19448509184E+02 -0.21696401890E+02 -0.10175694853E+02  0.30862973455E+02  0.51100000000E-03 0. -1.
        -11    1    3    3    0    0 -0.85187317092E+00 -0.12812038024E+02  0.92782815756E+00  0.12873805637E+02  0.51100000000E-03 0.  1.
         12    1    3    3    0    0  0.10847748908E+01 -0.12248926726E+01  0.65920842433E+01  0.67921037458E+01  0.00000000000E+00 0. -1.
</event>
<event>
 7    1  0.5972636E-013  0.5052886E+02  0.7816164E-02  0.1300439E+00
        -11   -1    0    0    0    0  0.00000000000E+00  0.00000000000E+00  0.45593999997E+02  0.45594000000E+02  0.51100000000E-03 0. -1.
         11   -1    0    0    0    0 -0.00000000000E+00 -0.00000000000E+00 -0.45593999997E+02  0.45594000000E+02  0.51100000000E-03 0.  1.
    9900012    2    1    2    0    0 -0.27918046010E+02 -0.29226112347E+02 -0.44252173004E+01  0.50528862231E+02  0.30000007239E+02 0.  0.
         12    1    1    2    0    0  0.27918046010E+02  0.29226112347E+02  0.44252173004E+01  0.40659137769E+02  0.00000000000E+00 0. -1.
         11    1    3    3    0    0 -0.93227298513E+00  0.35741245135E+01  0.56195232700E+01  0.67247707024E+01  0.51100000000E-03 0. -1.
        -11    1    3    3    0    0 -0.16558090359E+02 -0.20141298585E+02 -0.80168897078E+01  0.27278430781E+02  0.51100000000E-03 0.  1.
         12    1    3    3    0    0 -0.10427682666E+02 -0.12658938275E+02 -0.20278508626E+01  0.16525660748E+02  0.00000000000E+00 0. -1.
</event>
<event>
 7    1  0.5972636E-013  0.5052886E+02  0.7816164E-02  0.1300439E+00
        -11   -1    0    0    0    0  0.00000000000E+00  0.00000000000E+00  0.45593999997E+02  0.45594000000E+02  0.51100000000E-03 0.  1.
         11   -1    0    0    0    0 -0.00000000000E+00 -0.00000000000E+00 -0.45593999997E+02  0.45594000000E+02  0.51100000000E-03 0. -1.
    9900012    2    1    2    0    0 -0.91952412808E+01  0.10433994372E+02  0.38206610482E+02  0.50528858527E+02  0.29999995980E+02 0.  0.
         12    1    1    2    0    0  0.91952412808E+01 -0.10433994372E+02 -0.38206610482E+02  0.40659141473E+02  0.00000000000E+00 0. -1.
         11    1    3    3    0    0  0.64409301221E+01  0.47728522263E+01  0.11218326796E+01  0.80947024673E+01  0.51100000000E-03 0. -1.
        -11    1    3    3    0    0 -0.12118277965E+02  0.35007374814E+01  0.36028624087E+02  0.38172890611E+02  0.51100000000E-03 0.  1.
         12    1    3    3    0    0 -0.35178934378E+01  0.21604046641E+01  0.10561537153E+01  0.42612654485E+01  0.00000000000E+00 0. -1.
</event>
<event>
 7    1  0.5972636E-013  0.5052886E+02  0.7816164E-02  0.1300439E+00
        -11   -1    0    0    0    0  0.00000000000E+00  0.00000000000E+00  0.45593999997E+02  0.45594000000E+02  0.51100000000E-03 0.  1.
         11   -1    0    0    0    0 -0.00000000000E+00 -0.00000000000E+00 -0.45593999997E+02  0.45594000000E+02  0.51100000000E-03 0. -1.
    9900012    2    1    2    0    0  0.27859301375E+02 -0.22661334162E+01  0.29527783981E+02  0.50528855142E+02  0.29999985690E+02 0.  0.
         12    1    1    2    0    0 -0.27859301375E+02  0.22661334162E+01 -0.29527783981E+02  0.40659144858E+02  0.00000000000E+00 0. -1.
         11    1    3    3    0    0 -0.75539573047E+00  0.15500613165E+01 -0.89519217869E+00  0.19428541099E+01  0.51100000000E-03 0. -1.
        -11    1    3    3    0    0  0.15809094264E+02 -0.55582592316E+01  0.31435128841E+02  0.35622872324E+02  0.51100000000E-03 0.  1.
        -12    1    3    3    0    0  0.12805602841E+02  0.17420644988E+01 -0.10121526813E+01  0.12963128708E+02  0.00000000000E+00 0.  1.
</event>
<event>
 7    1  0.5972636E-013  0.5052886E+02  0.7816164E-02  0.1300439E+00
        -11   -1    0    0    0    0  0.00000000000E+00  0.00000000000E+00  0.45593999997E+02  0.45594000000E+02  0.51100000000E-03 0.  1.
         11   -1    0    0    0    0 -0.00000000000E+00 -0.00000000000E+00 -0.45593999997E+02  0.45594000000E+02  0.51100000000E-03 0. -1.
    9900012    2    1    2    0    0 -0.23312244405E+01  0.83873939504E+01  0.39716275079E+02  0.50528862149E+02  0.30000006988E+02 0.  0.
         12    1    1    2    0    0  0.23312244405E+01 -0.83873939504E+01 -0.39716275079E+02  0.40659137851E+02  0.00000000000E+00 0. -1.
         11    1    3    3    0    0 -0.85031627905E+01  0.95982003817E+00  0.46918699566E+01  0.97590304794E+01  0.51100000000E-03 0. -1.
        -11    1    3    3    0    0  0.87839840916E+01  0.11618309540E+02  0.31495786939E+02  0.34700548818E+02  0.51100000000E-03 0.  1.
        -12    1    3    3    0    0 -0.26120457416E+01 -0.41907356274E+01  0.35286181828E+01  0.60692828518E+01  0.00000000000E+00 0.  1.
</event>
<event>
 7    1  0.5972636E-013  0.5052886E+02  0.7816164E-02  0.1300439E+00
        -11   -1    0    0    0    0  0.00000000000E+00  0.00000000000E+00  0.45593999997E+02  0.45594000000E+02  0.51100000000E-03 0.  1.
         11   -1    0    0    0    0 -0.00000000000E+00 -0.00000000000E+00 -0.45593999997E+02  0.45594000000E+02  0.51100000000E-03 0. -1.
    9900012    2    1    2    0    0  0.68336421568E+01  0.43053708437E+01  0.39848853739E+02  0.50528855548E+02  0.29999986925E+02 0.  0.
         12    1    1    2    0    0 -0.68336421568E+01 -0.43053708437E+01 -0.39848853739E+02  0.40659144452E+02  0.00000000000E+00 0. -1.
         11    1    3    3    0    0 -0.10635584634E+02 -0.26077586982E+01  0.18741268406E+02  0.21706017776E+02  0.51100000000E-03 0. -1.
        -11    1    3    3    0    0  0.12095674661E+02  0.29323533219E+01  0.16643037248E+02  0.20782077149E+02  0.51100000000E-03 0.  1.
         12    1    3    3    0    0  0.53735521298E+01  0.39807762200E+01  0.44645480847E+01  0.80407606236E+01  0.00000000000E+00 0. -1.
</event>
<event>
 7    1  0.5972636E-013  0.5052885E+02  0.7816164E-02  0.1300439E+00
        -11   -1    0    0    0    0  0.00000000000E+00  0.00000000000E+00  0.45593999997E+02  0.45594000000E+02  0.51100000000E-03 0.  1.
         11   -1    0    0    0    0 -0.00000000000E+00 -0.00000000000E+00 -0.45593999997E+02  0.45594000000E+02  0.51100000000E-03 0. -1.
    9900012    2    1    2    0    0 -0.21460078119E+02 -0.42824159124E+01  0.34267945349E+02  0.50528854444E+02  0.29999983568E+02 0.  0.
         12    1    1    2    0    0  0.21460078119E+02  0.42824159124E+01 -0.34267945349E+02  0.40659145556E+02  0.00000000000E+00 0. -1.
         11    1    3    3    0    0 -0.96579438336E+01  0.78665276825E+01  0.50250870922E+01  0.13431665474E+02  0.51100000000E-03 0. -1.
        -11    1    3    3    0    0 -0.12561119025E+02 -0.56335807894E+01  0.26741507260E+02  0.30077020373E+02  0.51100000000E-03 0.  1.
        -12    1    3    3    0    0  0.75898473951E+00 -0.65153628055E+01  0.25013509960E+01  0.70201685968E+01  0.00000000000E+00 0.  1.
</event>
<event>
 7    1  0.5972636E-013  0.5052886E+02  0.7816164E-02  0.1300439E+00
        -11   -1    0    0    0    0  0.00000000000E+00  0.00000000000E+00  0.45593999997E+02  0.45594000000E+02  0.51100000000E-03 0.  1.
         11   -1    0    0    0    0 -0.00000000000E+00 -0.00000000000E+00 -0.45593999997E+02  0.45594000000E+02  0.51100000000E-03 0. -1.
    9900012    2    1    2    0    0 -0.17925812573E+02  0.27825435252E+02  0.23613042513E+02  0.50528863510E+02  0.30000011125E+02 0.  0.
         12    1    1    2    0    0  0.17925812573E+02 -0.27825435252E+02 -0.23613042513E+02  0.40659136490E+02  0.00000000000E+00 0. -1.
         11    1    3    3    0    0  0.13374849059E+01 -0.28863156824E+01  0.84827298836E+01  0.90596021233E+01  0.51100000000E-03 0. -1.
        -11    1    3    3    0    0 -0.12474515546E+02  0.24220592271E+02  0.16686918618E+02  0.31948456634E+02  0.51100000000E-03 0.  1.
        -12    1    3    3    0    0 -0.67887819336E+01  0.64911586635E+01 -0.15566059889E+01  0.95208047528E+01  0.00000000000E+00 0.  1.
</event>
<event>
 7    1  0.5972636E-013  0.5052885E+02  0.7816164E-02  0.1300439E+00
        -11   -1    0    0    0    0  0.00000000000E+00  0.00000000000E+00  0.45593999997E+02  0.45594000000E+02  0.51100000000E-03 0. -1.
         11   -1    0    0    0    0 -0.00000000000E+00 -0.00000000000E+00 -0.45593999997E+02  0.45594000000E+02  0.51100000000E-03 0.  1.
    9900012    2    1    2    0    0  0.35649485272E+02  0.12257443613E+02 -0.15232710104E+02  0.50528853659E+02  0.29999981182E+02 0.  0.
         12    1    1    2    0    0 -0.35649485272E+02 -0.12257443613E+02  0.15232710104E+02  0.40659146341E+02  0.00000000000E+00 0. -1.
         11    1    3    3    0    0  0.64614251018E+01  0.14391776800E+01  0.77082451667E+01  0.10160624516E+02  0.51100000000E-03 0. -1.
        -11    1    3    3    0    0  0.14060007982E+02  0.32110298660E+01 -0.17294085284E+02  0.22518435188E+02  0.51100000000E-03 0.  1.
        -12    1    3    3    0    0  0.15128052188E+02  0.76072360670E+01 -0.56468699864E+01  0.17849793955E+02  0.00000000000E+00 0.  1.
</event>
<event>
 7    1  0.5972636E-013  0.5052884E+02  0.7816164E-02  0.1300439E+00
        -11   -1    0    0    0    0  0.00000000000E+00  0.00000000000E+00  0.45593999997E+02  0.45594000000E+02  0.51100000000E-03 0. -1.
         11   -1    0    0    0    0 -0.00000000000E+00 -0.00000000000E+00 -0.45593999997E+02  0.45594000000E+02  0.51100000000E-03 0.  1.
    9900012    2    1    2    0    0 -0.19864148808E+02  0.33463906337E+02  0.11779206901E+02  0.50528841740E+02  0.29999944953E+02 0.  0.
         12    1    1    2    0    0  0.19864148808E+02 -0.33463906337E+02 -0.11779206901E+02  0.40659158260E+02  0.00000000000E+00 0. -1.
         11    1    3    3    0    0  0.11926292972E+00  0.10379892734E+01 -0.58083432606E+01  0.59015673403E+01  0.51100000000E-03 0. -1.
        -11    1    3    3    0    0 -0.18221031979E+02  0.25987700936E+02  0.76365162369E+01  0.32644800303E+02  0.51100000000E-03 0.  1.
        -12    1    3    3    0    0 -0.17623797592E+01  0.64382161280E+01  0.99510339243E+01  0.11982474097E+02  0.00000000000E+00 0.  1.
</event>
<event>
 7    1  0.5972636E-013  0.5052888E+02  0.7816164E-02  0.1300439E+00
        -11   -1    0    0    0    0  0.00000000000E+00  0.00000000000E+00  0.45593999997E+02  0.45594000000E+02  0.51100000000E-03 0. -1.
         11   -1    0    0    0    0 -0.00000000000E+00 -0.00000000000E+00 -0.45593999997E+02  0.45594000000E+02  0.51100000000E-03 0.  1.
    9900012    2    1    2    0    0 -0.10755945685E+02 -0.78384334029E+00 -0.39202799817E+02  0.50528876898E+02  0.30000051819E+02 0.  0.
         12    1    1    2    0    0  0.10755945685E+02  0.78384334029E+00  0.39202799817E+02  0.40659123102E+02  0.00000000000E+00 0. -1.
         11    1    3    3    0    0 -0.63507320543E+01  0.96526165647E+01 -0.58700552461E+01  0.12960029052E+02  0.51100000000E-03 0. -1.
        -11    1    3    3    0    0 -0.79728426996E+01 -0.98461192915E+01 -0.19369642220E+02  0.23145092910E+02  0.51100000000E-03 0.  1.
        -12    1    3    3    0    0  0.35676290687E+01 -0.59034061352E+00 -0.13963102350E+02  0.14423754936E+02  0.00000000000E+00 0.  1.
</event>
<event>
 7    1  0.5972636E-013  0.5052884E+02  0.7816164E-02  0.1300439E+00
        -11   -1    0    0    0    0  0.00000000000E+00  0.00000000000E+00  0.45593999997E+02  0.45594000000E+02  0.51100000000E-03 0. -1.
         11   -1    0    0    0    0 -0.00000000000E+00 -0.00000000000E+00 -0.45593999997E+02  0.45594000000E+02  0.51100000000E-03 0.  1.
    9900012    2    1    2    0    0  0.50390313367E+01  0.11696034033E+02 -0.38613183284E+02  0.50528843931E+02  0.29999951614E+02 0.  0.
         12    1    1    2    0    0 -0.50390313367E+01 -0.11696034033E+02  0.38613183284E+02  0.40659156069E+02  0.00000000000E+00 0. -1.
         11    1    3    3    0    0 -0.11717253655E+01  0.11116136035E+01 -0.27875163367E+00  0.16390020958E+01  0.51100000000E-03 0. -1.
        -11    1    3    3    0    0 -0.32238615095E+01  0.17580353585E+02 -0.17747505974E+02  0.25188014685E+02  0.51100000000E-03 0.  1.
        -12    1    3    3    0    0  0.94346182118E+01 -0.69959331549E+01 -0.20586925676E+02  0.23701827151E+02  0.00000000000E+00 0.  1.
</event>
<event>
 7    1  0.5972636E-013  0.5052887E+02  0.7816164E-02  0.1300439E+00
        -11   -1    0    0    0    0  0.00000000000E+00  0.00000000000E+00  0.45593999997E+02  0.45594000000E+02  0.51100000000E-03 0. -1.
         11   -1    0    0    0    0 -0.00000000000E+00 -0.00000000000E+00 -0.45593999997E+02  0.45594000000E+02  0.51100000000E-03 0.  1.
    9900012    2    1    2    0    0  0.25375433685E+02  0.29822913707E+02  0.10947419846E+02  0.50528870423E+02  0.30000032138E+02 0.  0.
         12    1    1    2    0    0 -0.25375433685E+02 -0.29822913707E+02 -0.10947419846E+02  0.40659129577E+02  0.00000000000E+00 0. -1.
         11    1    3    3    0    0 -0.34439224234E+01  0.14685590989E+01  0.52095283381E+01  0.64153295513E+01  0.51100000000E-03 0. -1.
        -11    1    3    3    0    0  0.21995354875E+02  0.18146651049E+02  0.11250740858E+02  0.30654131051E+02  0.51100000000E-03 0.  1.
        -12    1    3    3    0    0  0.68240012335E+01  0.10207703559E+02 -0.55128493495E+01  0.13459409821E+02  0.00000000000E+00 0.  1.
</event>
<event>
 7    1  0.5972636E-013  0.5052890E+02  0.7816164E-02  0.1300439E+00
        -11   -1    0    0    0    0  0.00000000000E+00  0.00000000000E+00  0.45593999997E+02  0.45594000000E+02  0.51100000000E-03 0.  1.
         11   -1    0    0    0    0 -0.00000000000E+00 -0.00000000000E+00 -0.45593999997E+02  0.45594000000E+02  0.51100000000E-03 0. -1.
    9900012    2    1    2    0    0 -0.20949186479E+02  0.27615298509E+02  0.21252988826E+02  0.50528896961E+02  0.30000112803E+02 0.  0.
         12    1    1    2    0    0  0.20949186479E+02 -0.27615298509E+02 -0.21252988826E+02  0.40659103039E+02  0.00000000000E+00 0. -1.
         11    1    3    3    0    0 -0.90280220135E+01  0.12587624044E+02  0.16690863667E+02  0.22771438048E+02  0.51100000000E-03 0.  1.
        -11    1    3    3    0    0 -0.32240757811E+01 -0.47242428959E+01  0.18196884692E+01  0.60020331528E+01  0.51100000000E-03 0. -1.
        -12    1    3    3    0    0 -0.86970886841E+01  0.19751917361E+02  0.27424366895E+01  0.21755425761E+02  0.00000000000E+00 0.  1.
</event>
<event>
 7    1  0.5972636E-013  0.5052885E+02  0.7816164E-02  0.1300439E+00
        -11   -1    0    0    0    0  0.00000000000E+00  0.00000000000E+00  0.45593999997E+02  0.45594000000E+02  0.51100000000E-03 0.  1.
         11   -1    0    0    0    0 -0.00000000000E+00 -0.00000000000E+00 -0.45593999997E+02  0.45594000000E+02  0.51100000000E-03 0. -1.
    9900012    2    1    2    0    0 -0.95855110163E+01 -0.27001773882E+02  0.28847676928E+02  0.50528852464E+02  0.29999977551E+02 0.  0.
         12    1    1    2    0    0  0.95855110163E+01  0.27001773882E+02 -0.28847676928E+02  0.40659147536E+02  0.00000000000E+00 0. -1.
         11    1    3    3    0    0 -0.17622551318E+02 -0.18747022695E+02  0.26962461690E+02  0.37269015489E+02  0.51100000000E-03 0. -1.
        -11    1    3    3    0    0  0.18891134186E+01 -0.64417941715E+01  0.83790176694E+00  0.67651711943E+01  0.51100000000E-03 0.  1.
         12    1    3    3    0    0  0.61479268832E+01 -0.18129570150E+01  0.10473134708E+01  0.64946657809E+01  0.00000000000E+00 0. -1.
</event>
<event>
 7    1  0.5972636E-013  0.5052886E+02  0.7816164E-02  0.1300439E+00
        -11   -1    0    0    0    0  0.00000000000E+00  0.00000000000E+00  0.45593999997E+02  0.45594000000E+02  0.51100000000E-03 0. -1.
         11   -1    0    0    0    0 -0.00000000000E+00 -0.00000000000E+00 -0.45593999997E+02  0.45594000000E+02  0.51100000000E-03 0.  1.
    9900012    2    1    2    0    0 -0.63216914434E+01  0.27815290405E+02  0.28974323757E+02  0.50528860804E+02  0.30000002898E+02 0.  0.
         12    1    1    2    0    0  0.63216914434E+01 -0.27815290405E+02 -0.28974323757E+02  0.40659139196E+02  0.00000000000E+00 0. -1.
         11    1    3    3    0    0  0.97027584329E+00  0.63709151566E+01  0.24920638200E+02  0.25740400224E+02  0.51100000000E-03 0. -1.
        -11    1    3    3    0    0 -0.11266249332E+01  0.19460283308E+01 -0.24536885539E+01  0.33281973777E+01  0.51100000000E-03 0.  1.
         12    1    3    3    0    0 -0.61653423534E+01  0.19498346918E+02  0.65073741106E+01  0.21460263202E+02  0.00000000000E+00 0. -1.
</event>
<event>
 7    1  0.5972636E-013  0.5052885E+02  0.7816164E-02  0.1300439E+00
        -11   -1    0    0    0    0  0.00000000000E+00  0.00000000000E+00  0.45593999997E+02  0.45594000000E+02  0.51100000000E-03 0.  1.
         11   -1    0    0    0    0 -0.00000000000E+00 -0.00000000000E+00 -0.45593999997E+02  0.45594000000E+02  0.51100000000E-03 0. -1.
    9900012    2    1    2    0    0 -0.33123819095E+01  0.40097268788E+02  0.58654926322E+01  0.50528845532E+02  0.29999956481E+02 0.  0.
         12    1    1    2    0    0  0.33123819095E+01 -0.40097268788E+02 -0.58654926322E+01  0.40659154468E+02  0.00000000000E+00 0. -1.
         11    1    3    3    0    0 -0.15575936076E+01 -0.12579345652E+01 -0.41158865751E+01  0.45770099166E+01  0.51100000000E-03 0. -1.
        -11    1    3    3    0    0  0.69402604422E+01  0.26318254709E+02  0.85211636342E+01  0.28520658756E+02  0.51100000000E-03 0.  1.
         12    1    3    3    0    0 -0.86950487441E+01  0.15036948644E+02  0.14602155730E+01  0.17431176860E+02  0.00000000000E+00 0. -1.
</event>
<event>
 7    1  0.5972636E-013  0.5052885E+02  0.7816164E-02  0.1300439E+00
        -11   -1    0    0    0    0  0.00000000000E+00  0.00000000000E+00  0.45593999997E+02  0.45594000000E+02  0.51100000000E-03 0.  1.
         11   -1    0    0    0    0 -0.00000000000E+00 -0.00000000000E+00 -0.45593999997E+02  0.45594000000E+02  0.51100000000E-03 0. -1.
    9900012    2    1    2    0    0 -0.20096320953E+02  0.77704610526E+01  0.34480776545E+02  0.50528854264E+02  0.29999983021E+02 0.  0.
         12    1    1    2    0    0  0.20096320953E+02 -0.77704610526E+01 -0.34480776545E+02  0.40659145736E+02  0.00000000000E+00 0. -1.
         11    1    3    3    0    0 -0.20955336353E+02  0.28098939308E+01  0.79006558682E+01  0.22570821628E+02  0.51100000000E-03 0. -1.
        -11    1    3    3    0    0  0.12858290234E+01 -0.13501195270E+01  0.10759942493E+02  0.10920281211E+02  0.51100000000E-03 0.  1.
         12    1    3    3    0    0 -0.42681362380E+00  0.63106866488E+01  0.15820178184E+02  0.17037751425E+02  0.00000000000E+00 0. -1.
</event>
<event>
 7    1  0.5972636E-013  0.5052887E+02  0.7816164E-02  0.1300439E+00
        -11   -1    0    0    0    0  0.00000000000E+00  0.00000000000E+00  0.45593999997E+02  0.45594000000E+02  0.51100000000E-03 0.  1.
         11   -1    0    0    0    0 -0.00000000000E+00 -0.00000000000E+00 -0.45593999997E+02  0.45594000000E+02  0.51100000000E-03 0. -1.
    9900012    2    1    2    0    0  0.57381153391E+01 -0.31404868383E+02  0.25178826866E+02  0.50528867592E+02  0.30000023533E+02 0.  0.
         12    1    1    2    0    0 -0.57381153391E+01  0.31404868383E+02 -0.25178826866E+02  0.40659132408E+02  0.00000000000E+00 0. -1.
         11    1    3    3    0    0 -0.16670231531E+01  0.50821165497E+01  0.53431327470E+01  0.75601549343E+01  0.51100000000E-03 0. -1.
        -11    1    3    3    0    0  0.86844877450E+01 -0.23272656478E+02  0.12923119046E+02  0.28000783436E+02  0.51100000000E-03 0.  1.
        -12    1    3    3    0    0 -0.12793492529E+01 -0.13214328455E+02  0.69125750731E+01  0.14967929221E+02  0.00000000000E+00 0.  1.
</event>
<event>
 7    1  0.5972636E-013  0.5052885E+02  0.7816164E-02  0.1300439E+00
        -11   -1    0    0    0    0  0.00000000000E+00  0.00000000000E+00  0.45593999997E+02  0.45594000000E+02  0.51100000000E-03 0.  1.
         11   -1    0    0    0    0 -0.00000000000E+00 -0.00000000000E+00 -0.45593999997E+02  0.45594000000E+02  0.51100000000E-03 0. -1.
    9900012    2    1    2    0    0  0.38521338093E+02  0.11940934121E+02  0.51659151746E+01  0.50528854955E+02  0.29999985121E+02 0.  0.
         12    1    1    2    0    0 -0.38521338093E+02 -0.11940934121E+02 -0.51659151746E+01  0.40659145045E+02  0.00000000000E+00 0. -1.
         11    1    3    3    0    0  0.12048157539E+01 -0.64359594809E+01 -0.77953413438E+00  0.65939994819E+01  0.51100000000E-03 0. -1.
        -11    1    3    3    0    0  0.23361544624E+02  0.77568757355E+01 -0.19708388037E+01  0.24694434479E+02  0.51100000000E-03 0.  1.
        -12    1    3    3    0    0  0.13954977715E+02  0.10620017867E+02  0.79162881127E+01  0.19240420994E+02  0.00000000000E+00 0.  1.
</event>
<event>
 7    1  0.5972636E-013  0.5052886E+02  0.7816164E-02  0.1300439E+00
        -11   -1    0    0    0    0  0.00000000000E+00  0.00000000000E+00  0.45593999997E+02  0.45594000000E+02  0.51100000000E-03 0. -1.
         11   -1    0    0    0    0 -0.00000000000E+00 -0.00000000000E+00 -0.45593999997E+02  0.45594000000E+02  0.51100000000E-03 0.  1.
    9900012    2    1    2    0    0  0.16452280770E+02 -0.94199721489E+01 -0.35968768478E+02  0.50528859286E+02  0.29999998285E+02 0.  0.
         12    1    1    2    0    0 -0.16452280770E+02  0.94199721489E+01  0.35968768478E+02  0.40659140714E+02  0.00000000000E+00 0. -1.
         11    1    3    3    0    0  0.15805946176E+02 -0.14604308354E+01 -0.81418317933E+01  0.17839568883E+02  0.51100000000E-03 0. -1.
        -11    1    3    3    0    0 -0.59952804256E+01 -0.65994580181E+01 -0.89558341900E+01  0.12637373137E+02  0.51100000000E-03 0.  1.
        -12    1    3    3    0    0  0.66416150200E+01 -0.13600832955E+01 -0.18871102494E+02  0.20051917265E+02  0.00000000000E+00 0.  1.
</event>
<event>
 7    1  0.5972636E-013  0.5052889E+02  0.7816164E-02  0.1300439E+00
        -11   -1    0    0    0    0  0.00000000000E+00  0.00000000000E+00  0.45593999997E+02  0.45594000000E+02  0.51100000000E-03 0.  1.
         11   -1    0    0    0    0 -0.00000000000E+00 -0.00000000000E+00 -0.45593999997E+02  0.45594000000E+02  0.51100000000E-03 0. -1.
    9900012    2    1    2    0    0  0.37857091820E+02 -0.21426438716E+01  0.14676948967E+02  0.50528890875E+02  0.30000094305E+02 0.  0.
         12    1    1    2    0    0 -0.37857091820E+02  0.21426438716E+01 -0.14676948967E+02  0.40659109125E+02  0.00000000000E+00 0. -1.
         11    1    3    3    0    0  0.13202353411E+02  0.45916152438E+01  0.19706070767E+02  0.24160179872E+02  0.51100000000E-03 0. -1.
        -11    1    3    3    0    0  0.24460312341E+02 -0.69110449134E+01 -0.45495298188E+01  0.25821844308E+02  0.51100000000E-03 0.  1.
        -12    1    3    3    0    0  0.19442606751E+00  0.17678579800E+00 -0.47959198091E+00  0.54686669514E+00  0.00000000000E+00 0.  1.
</event>
<event>
 7    1  0.5972636E-013  0.5052886E+02  0.7816164E-02  0.1300439E+00
        -11   -1    0    0    0    0  0.00000000000E+00  0.00000000000E+00  0.45593999997E+02  0.45594000000E+02  0.51100000000E-03 0.  1.
         11   -1    0    0    0    0 -0.00000000000E+00 -0.00000000000E+00 -0.45593999997E+02  0.45594000000E+02  0.51100000000E-03 0. -1.
    9900012    2    1    2    0    0 -0.29808354995E+02  0.13978549784E+02  0.23858499372E+02  0.50528857438E+02  0.29999992669E+02 0.  0.
         12    1    1    2    0    0  0.29808354995E+02 -0.13978549784E+02 -0.23858499372E+02  0.40659142562E+02  0.00000000000E+00 0. -1.
         11    1    3    3    0    0 -0.30334062410E+01  0.84229172025E+01 -0.10876112938E+01  0.90183139339E+01  0.51100000000E-03 0. -1.
        -11    1    3    3    0    0 -0.26322120569E+02 -0.48495246267E-01  0.24348044713E+02  0.35856431287E+02  0.51100000000E-03 0.  1.
        -12    1    3    3    0    0 -0.45282818492E+00  0.56041278281E+01  0.59806595289E+00  0.56541122171E+01  0.00000000000E+00 0.  1.
</event>
<event>
 7    1  0.5972636E-013  0.5052887E+02  0.7816164E-02  0.1300439E+00
        -11   -1    0    0    0    0  0.00000000000E+00  0.00000000000E+00  0.45593999997E+02  0.45594000000E+02  0.51100000000E-03 0. -1.
         11   -1    0    0    0    0 -0.00000000000E+00 -0.00000000000E+00 -0.45593999997E+02  0.45594000000E+02  0.51100000000E-03 0.  1.
    9900012    2    1    2    0    0 -0.38726338916E+02 -0.34204671624E+01 -0.11905294544E+02  0.50528868681E+02  0.30000026842E+02 0.  0.
         12    1    1    2    0    0  0.38726338916E+02  0.34204671624E+01  0.11905294544E+02  0.40659131319E+02  0.00000000000E+00 0. -1.
         11    1    3    3    0    0 -0.85438253068E+01  0.43541037032E+01 -0.12818822111E+02  0.16008665481E+02  0.51100000000E-03 0. -1.
        -11    1    3    3    0    0 -0.30701342848E+02 -0.65854879072E+01 -0.18636363738E+01  0.31454955801E+02  0.51100000000E-03 0.  1.
        -12    1    3    3    0    0  0.51882923824E+00 -0.11890829584E+01  0.27771639406E+01  0.30652473984E+01  0.00000000000E+00 0.  1.
</event>
<event>
 7    1  0.5972636E-013  0.5052886E+02  0.7816164E-02  0.1300439E+00
        -11   -1    0    0    0    0  0.00000000000E+00  0.00000000000E+00  0.45593999997E+02  0.45594000000E+02  0.51100000000E-03 0. -1.
         11   -1    0    0    0    0 -0.00000000000E+00 -0.00000000000E+00 -0.45593999997E+02  0.45594000000E+02  0.51100000000E-03 0.  1.
    9900012    2    1    2    0    0  0.17841300275E+02  0.15099260607E+02 -0.33269601696E+02  0.50528855107E+02  0.29999985584E+02 0.  0.
         12    1    1    2    0    0 -0.17841300275E+02 -0.15099260607E+02  0.33269601696E+02  0.40659144893E+02  0.00000000000E+00 0. -1.
         11    1    3    3    0    0  0.11199549530E+02  0.10056734790E+01 -0.13624664142E+01  0.11326853218E+02  0.51100000000E-03 0. -1.
        -11    1    3    3    0    0  0.53074226830E+01  0.16816063225E+02 -0.18910644822E+02  0.25856550539E+02  0.51100000000E-03 0.  1.
        -12    1    3    3    0    0  0.13343280620E+01 -0.27224760973E+01 -0.12996490460E+02  0.13345451351E+02  0.00000000000E+00 0.  1.
</event>
<event>
 7    1  0.5972636E-013  0.5052885E+02  0.7816164E-02  0.1300439E+00
        -11   -1    0    0    0    0  0.00000000000E+00  0.00000000000E+00  0.45593999997E+02  0.45594000000E+02  0.51100000000E-03 0.  1.
         11   -1    0    0    0    0 -0.00000000000E+00 -0.00000000000E+00 -0.45593999997E+02  0.45594000000E+02  0.51100000000E-03 0. -1.
    9900012    2    1    2    0    0  0.13706158797E+02  0.38275333959E+02 -0.55358812494E+00  0.50528850495E+02  0.29999971565E+02 0.  0.
         12    1    1    2    0    0 -0.13706158797E+02 -0.38275333959E+02  0.55358812494E+00  0.40659149505E+02  0.00000000000E+00 0. -1.
         11    1    3    3    0    0 -0.51072403046E+01  0.15994967682E+01 -0.28693349589E+01  0.60725099265E+01  0.51100000000E-03 0. -1.
        -11    1    3    3    0    0  0.19634375033E+02  0.30492498546E+02 -0.28199484638E+01  0.36376548216E+02  0.51100000000E-03 0.  1.
        -12    1    3    3    0    0 -0.82097593087E+00  0.61833386448E+01  0.51356952977E+01  0.80797923529E+01  0.00000000000E+00 0.  1.
</event>
<event>
 7    1  0.5972636E-013  0.5052885E+02  0.7816164E-02  0.1300439E+00
        -11   -1    0    0    0    0  0.00000000000E+00  0.00000000000E+00  0.45593999997E+02  0.45594000000E+02  0.51100000000E-03 0.  1.
         11   -1    0    0    0    0 -0.00000000000E+00 -0.00000000000E+00 -0.45593999997E+02  0.45594000000E+02  0.51100000000E-03 0. -1.
    9900012    2    1    2    0    0  0.34481460970E+02 -0.14627900781E+02  0.15818326930E+02  0.50528854673E+02  0.29999984263E+02 0.  0.
         12    1    1    2    0    0 -0.34481460970E+02  0.14627900781E+02 -0.15818326930E+02  0.40659145327E+02  0.00000000000E+00 0. -1.
         11    1    3    3    0    0 -0.36432685864E+01 -0.36816872282E+01 -0.28442713954E+01  0.59091544971E+01  0.51100000000E-03 0. -1.
        -11    1    3    3    0    0  0.15046655977E+02 -0.85785497686E+01  0.74930657989E+01  0.18871656195E+02  0.51100000000E-03 0.  1.
         12    1    3    3    0    0  0.23078073580E+02 -0.23676637838E+01  0.11169532526E+02  0.25748043980E+02  0.00000000000E+00 0. -1.
</event>
<event>
 7    1  0.5972636E-013  0.5052886E+02  0.7816164E-02  0.1300439E+00
        -11   -1    0    0    0    0  0.00000000000E+00  0.00000000000E+00  0.45593999997E+02  0.45594000000E+02  0.51100000000E-03 0.  1.
         11   -1    0    0    0    0 -0.00000000000E+00 -0.00000000000E+00 -0.45593999997E+02  0.45594000000E+02  0.51100000000E-03 0. -1.
    9900012    2    1    2    0    0  0.28621083158E+02  0.13513056027E+02  0.25522478497E+02  0.50528855974E+02  0.29999988220E+02 0.  0.
         12    1    1    2    0    0 -0.28621083158E+02 -0.13513056027E+02 -0.25522478497E+02  0.40659144026E+02  0.00000000000E+00 0. -1.
         11    1    3    3    0    0  0.95246669190E+01 -0.57421833398E+01  0.27384398824E+01  0.11453864094E+02  0.51100000000E-03 0. -1.
        -11    1    3    3    0    0  0.76305051895E+01  0.16878346078E+02  0.19540019047E+02  0.26924255243E+02  0.51100000000E-03 0.  1.
        -12    1    3    3    0    0  0.11465911049E+02  0.23768932888E+01  0.32440195672E+01  0.12150736638E+02  0.00000000000E+00 0.  1.
</event>
<event>
 7    1  0.5972636E-013  0.5052886E+02  0.7816164E-02  0.1300439E+00
        -11   -1    0    0    0    0  0.00000000000E+00  0.00000000000E+00  0.45593999997E+02  0.45594000000E+02  0.51100000000E-03 0.  1.
         11   -1    0    0    0    0 -0.00000000000E+00 -0.00000000000E+00 -0.45593999997E+02  0.45594000000E+02  0.51100000000E-03 0. -1.
    9900012    2    1    2    0    0 -0.16121344239E+02  0.18332276135E+02  0.32514539752E+02  0.50528863467E+02  0.30000010993E+02 0.  0.
         12    1    1    2    0    0  0.16121344239E+02 -0.18332276135E+02 -0.32514539752E+02  0.40659136533E+02  0.00000000000E+00 0. -1.
         11    1    3    3    0    0 -0.98751750373E+01  0.48181438198E+01  0.92319666088E+01  0.14351404099E+02  0.51100000000E-03 0. -1.
        -11    1    3    3    0    0 -0.10573745260E+01 -0.25291930651E+00  0.21305004941E+02  0.21332727085E+02  0.51100000000E-03 0.  1.
        -12    1    3    3    0    0 -0.51887946755E+01  0.13767051622E+02  0.19775682017E+01  0.14844732283E+02  0.00000000000E+00 0.  1.
</event>
<event>
 7    1  0.5972636E-013  0.5052886E+02  0.7816164E-02  0.1300439E+00
        -11   -1    0    0    0    0  0.00000000000E+00  0.00000000000E+00  0.45593999997E+02  0.45594000000E+02  0.51100000000E-03 0.  1.
         11   -1    0    0    0    0 -0.00000000000E+00 -0.00000000000E+00 -0.45593999997E+02  0.45594000000E+02  0.51100000000E-03 0. -1.
    9900012    2    1    2    0    0 -0.40444124244E+02 -0.39083456107E+01 -0.14707800554E+01  0.50528861479E+02  0.30000004951E+02 0.  0.
         12    1    1    2    0    0  0.40444124244E+02  0.39083456107E+01  0.14707800554E+01  0.40659138521E+02  0.00000000000E+00 0. -1.
         11    1    3    3    0    0 -0.69452062539E+01  0.58973307536E+01  0.51543978062E+01  0.10468152508E+02  0.51100000000E-03 0. -1.
        -11    1    3    3    0    0 -0.14101793257E+02 -0.99732751526E+01  0.42979185823E+01  0.17798845320E+02  0.51100000000E-03 0.  1.
        -12    1    3    3    0    0 -0.19397124733E+02  0.16759878821E+00 -0.10923096444E+02  0.22261863651E+02  0.00000000000E+00 0.  1.
</event>
<event>
 7    1  0.5972636E-013  0.5052886E+02  0.7816164E-02  0.1300439E+00
        -11   -1    0    0    0    0  0.00000000000E+00  0.00000000000E+00  0.45593999997E+02  0.45594000000E+02  0.51100000000E-03 0.  1.
         11   -1    0    0    0    0 -0.00000000000E+00 -0.00000000000E+00 -0.45593999997E+02  0.45594000000E+02  0.51100000000E-03 0. -1.
    9900012    2    1    2    0    0  0.36344576704E+02 -0.15269526308E+02  0.99538534179E+01  0.50528857273E+02  0.29999992167E+02 0.  0.
         12    1    1    2    0    0 -0.36344576704E+02  0.15269526308E+02 -0.99538534179E+01  0.40659142727E+02  0.00000000000E+00 0. -1.
         11    1    3    3    0    0  0.10138812317E+02  0.57511002500E+01 -0.46274566479E+01  0.12541292779E+02  0.51100000000E-03 0. -1.
        -11    1    3    3    0    0  0.12406041178E+02 -0.37305654812E+01  0.55186668730E+01  0.14081287613E+02  0.51100000000E-03 0.  1.
         12    1    3    3    0    0  0.13799723208E+02 -0.17290061077E+02  0.90626431927E+01  0.23906276881E+02  0.00000000000E+00 0. -1.
</event>
<event>
 7    1  0.5972636E-013  0.5052882E+02  0.7816164E-02  0.1300439E+00
        -11   -1    0    0    0    0  0.00000000000E+00  0.00000000000E+00  0.45593999997E+02  0.45594000000E+02  0.51100000000E-03 0. -1.
         11   -1    0    0    0    0 -0.00000000000E+00 -0.00000000000E+00 -0.45593999997E+02  0.45594000000E+02  0.51100000000E-03 0.  1.
    9900012    2    1    2    0    0 -0.16507701986E+01 -0.12826668963E+01 -0.40605397491E+02  0.50528824135E+02  0.29999891440E+02 0.  0.
         12    1    1    2    0    0  0.16507701986E+01  0.12826668963E+01  0.40605397491E+02  0.40659175865E+02  0.00000000000E+00 0. -1.
         11    1    3    3    0    0  0.36478679244E+01  0.47887980929E+01 -0.80094538128E+01  0.10019524849E+02  0.51100000000E-03 0. -1.
        -11    1    3    3    0    0 -0.95395710040E+01 -0.65123968782E+01 -0.34088176419E+02  0.35991922703E+02  0.51100000000E-03 0.  1.
        -12    1    3    3    0    0  0.42409328810E+01  0.44093188892E+00  0.14922327406E+01  0.45173765820E+01  0.00000000000E+00 0.  1.
</event>
<event>
 7    1  0.5972636E-013  0.5052887E+02  0.7816164E-02  0.1300439E+00
        -11   -1    0    0    0    0  0.00000000000E+00  0.00000000000E+00  0.45593999997E+02  0.45594000000E+02  0.51100000000E-03 0. -1.
         11   -1    0    0    0    0 -0.00000000000E+00 -0.00000000000E+00 -0.45593999997E+02  0.45594000000E+02  0.51100000000E-03 0.  1.
    9900012    2    1    2    0    0  0.63199316411E+01 -0.37561559139E+02 -0.14225067453E+02  0.50528870584E+02  0.30000032626E+02 0.  0.
         12    1    1    2    0    0 -0.63199316411E+01  0.37561559139E+02  0.14225067453E+02  0.40659129416E+02  0.00000000000E+00 0. -1.
         11    1    3    3    0    0 -0.13407534817E+01 -0.12972899267E+02 -0.11332249093E+02  0.17277546269E+02  0.51100000000E-03 0. -1.
        -11    1    3    3    0    0  0.15369604553E+01  0.36678630444E+01  0.93849812579E+00  0.40861039815E+01  0.51100000000E-03 0.  1.
         12    1    3    3    0    0  0.61237246675E+01 -0.28256522916E+02 -0.38313164855E+01  0.29165220334E+02  0.00000000000E+00 0. -1.
</event>
<event>
 7    1  0.5972636E-013  0.5052885E+02  0.7816164E-02  0.1300439E+00
        -11   -1    0    0    0    0  0.00000000000E+00  0.00000000000E+00  0.45593999997E+02  0.45594000000E+02  0.51100000000E-03 0.  1.
         11   -1    0    0    0    0 -0.00000000000E+00 -0.00000000000E+00 -0.45593999997E+02  0.45594000000E+02  0.51100000000E-03 0. -1.
    9900012    2    1    2    0    0 -0.34682930970E+02 -0.17906534478E+02  0.11384930498E+02  0.50528851950E+02  0.29999975989E+02 0.  0.
         12    1    1    2    0    0  0.34682930970E+02  0.17906534478E+02 -0.11384930498E+02  0.40659148050E+02  0.00000000000E+00 0. -1.
         11    1    3    3    0    0 -0.13302429316E+02 -0.14927973494E+02  0.89062003319E+01  0.21888796745E+02  0.51100000000E-03 0.  1.
        -11    1    3    3    0    0 -0.22160157386E+02 -0.48353145411E+01 -0.29286632563E+01  0.22869847197E+02  0.51100000000E-03 0. -1.
        -12    1    3    3    0    0  0.77965573175E+00  0.18567535575E+01  0.54073934224E+01  0.57702080082E+01  0.00000000000E+00 0.  1.
</event>
<event>
 7    1  0.5972636E-013  0.5052887E+02  0.7816164E-02  0.1300439E+00
        -11   -1    0    0    0    0  0.00000000000E+00  0.00000000000E+00  0.45593999997E+02  0.45594000000E+02  0.51100000000E-03 0.  1.
         11   -1    0    0    0    0 -0.00000000000E+00 -0.00000000000E+00 -0.45593999997E+02  0.45594000000E+02  0.51100000000E-03 0. -1.
    9900012    2    1    2    0    0  0.34641457057E+02 -0.38536743726E+01  0.20935224913E+02  0.50528868241E+02  0.30000025506E+02 0.  0.
         12    1    1    2    0    0 -0.34641457057E+02  0.38536743726E+01 -0.20935224913E+02  0.40659131759E+02  0.00000000000E+00 0. -1.
         11    1    3    3    0    0  0.12462667696E+02  0.63993134176E+01  0.14405799615E+02  0.20094684898E+02  0.51100000000E-03 0. -1.
        -11    1    3    3    0    0  0.23288530058E+02 -0.48907327596E+01  0.73304815028E+01  0.24900017239E+02  0.51100000000E-03 0.  1.
         12    1    3    3    0    0 -0.11097406972E+01 -0.53622550306E+01 -0.80105620459E+00  0.55341661044E+01  0.00000000000E+00 0. -1.
</event>
<event>
 7    1  0.5972636E-013  0.5052886E+02  0.7816164E-02  0.1300439E+00
        -11   -1    0    0    0    0  0.00000000000E+00  0.00000000000E+00  0.45593999997E+02  0.45594000000E+02  0.51100000000E-03 0.  1.
         11   -1    0    0    0    0 -0.00000000000E+00 -0.00000000000E+00 -0.45593999997E+02  0.45594000000E+02  0.51100000000E-03 0. -1.
    9900012    2    1    2    0    0 -0.39832662406E+02 -0.81232962839E+01 -0.73272207944E+00  0.50528858119E+02  0.29999994739E+02 0.  0.
         12    1    1    2    0    0  0.39832662406E+02  0.81232962839E+01  0.73272207944E+00  0.40659141881E+02  0.00000000000E+00 0. -1.
         11    1    3    3    0    0  0.18398901440E+00  0.57196226794E+00  0.64574930967E+01  0.64853843485E+01  0.51100000000E-03 0. -1.
        -11    1    3    3    0    0 -0.33519762018E+02 -0.12123325999E+01 -0.56841455936E+01  0.34019901638E+02  0.51100000000E-03 0.  1.
         12    1    3    3    0    0 -0.64968894024E+01 -0.74829259519E+01 -0.15060695825E+01  0.10023572133E+02  0.00000000000E+00 0. -1.
</event>
<event>
 7    1  0.5972636E-013  0.5052886E+02  0.7816164E-02  0.1300439E+00
        -11   -1    0    0    0    0  0.00000000000E+00  0.00000000000E+00  0.45593999997E+02  0.45594000000E+02  0.51100000000E-03 0. -1.
         11   -1    0    0    0    0 -0.00000000000E+00 -0.00000000000E+00 -0.45593999997E+02  0.45594000000E+02  0.51100000000E-03 0.  1.
    9900012    2    1    2    0    0  0.26639133856E+02  0.16987041474E+02 -0.25592243138E+02  0.50528856632E+02  0.29999990219E+02 0.  0.
         12    1    1    2    0    0 -0.26639133856E+02 -0.16987041474E+02  0.25592243138E+02  0.40659143368E+02  0.00000000000E+00 0. -1.
         11    1    3    3    0    0  0.29890546837E+02  0.19692490114E+02 -0.19763610731E+02  0.40888131120E+02  0.51100000000E-03 0. -1.
        -11    1    3    3    0    0 -0.22453188168E+01  0.16066085395E+01 -0.39767363394E+01  0.48411857806E+01  0.51100000000E-03 0.  1.
         12    1    3    3    0    0 -0.10060941646E+01 -0.43120571797E+01 -0.18518960669E+01  0.47995397312E+01  0.00000000000E+00 0. -1.
</event>
<event>
 7    1  0.5972636E-013  0.5052886E+02  0.7816164E-02  0.1300439E+00
        -11   -1    0    0    0    0  0.00000000000E+00  0.00000000000E+00  0.45593999997E+02  0.45594000000E+02  0.51100000000E-03 0.  1.
         11   -1    0    0    0    0 -0.00000000000E+00 -0.00000000000E+00 -0.45593999997E+02  0.45594000000E+02  0.51100000000E-03 0. -1.
    9900012    2    1    2    0    0  0.12653188548E+02 -0.28060603116E+02  0.26564352425E+02  0.50528862683E+02  0.30000008610E+02 0.  0.
         12    1    1    2    0    0 -0.12653188548E+02  0.28060603116E+02 -0.26564352425E+02  0.40659137317E+02  0.00000000000E+00 0. -1.
         11    1    3    3    0    0  0.36082128100E+01 -0.18273362001E+02  0.30800123971E+00  0.18628736498E+02  0.51100000000E-03 0. -1.
        -11    1    3    3    0    0  0.11430969887E+02 -0.70687849958E+01  0.15313278280E+02  0.20374770817E+02  0.51100000000E-03 0.  1.
         12    1    3    3    0    0 -0.23859941491E+01 -0.27184561187E+01  0.10943072905E+02  0.11525355367E+02  0.00000000000E+00 0. -1.
</event>
<event>
 7    1  0.5972636E-013  0.5052888E+02  0.7816164E-02  0.1300439E+00
        -11   -1    0    0    0    0  0.00000000000E+00  0.00000000000E+00  0.45593999997E+02  0.45594000000E+02  0.51100000000E-03 0.  1.
         11   -1    0    0    0    0 -0.00000000000E+00 -0.00000000000E+00 -0.45593999997E+02  0.45594000000E+02  0.51100000000E-03 0. -1.
    9900012    2    1    2    0    0 -0.11014067253E+02 -0.28805775580E+02  0.26496821712E+02  0.50528881157E+02  0.30000064766E+02 0.  0.
         12    1    1    2    0    0  0.11014067253E+02  0.28805775580E+02 -0.26496821712E+02  0.40659118843E+02  0.00000000000E+00 0. -1.
         11    1    3    3    0    0 -0.88105826977E+00  0.40339920730E+01  0.26859252099E+00  0.41378131812E+01  0.51100000000E-03 0. -1.
        -11    1    3    3    0    0 -0.44296002773E+01 -0.31249997183E+02  0.18259827881E+02  0.36463749081E+02  0.51100000000E-03 0.  1.
        -12    1    3    3    0    0 -0.57034087061E+01 -0.15897704704E+01  0.79684013094E+01  0.99273188952E+01  0.00000000000E+00 0.  1.
</event>
<event>
 7    1  0.5972636E-013  0.5052887E+02  0.7816164E-02  0.1300439E+00
        -11   -1    0    0    0    0  0.00000000000E+00  0.00000000000E+00  0.45593999997E+02  0.45594000000E+02  0.51100000000E-03 0.  1.
         11   -1    0    0    0    0 -0.00000000000E+00 -0.00000000000E+00 -0.45593999997E+02  0.45594000000E+02  0.51100000000E-03 0. -1.
    9900012    2    1    2    0    0 -0.10537091912E+02 -0.15329331378E+02  0.36154481759E+02  0.50528865015E+02  0.30000015701E+02 0.  0.
         12    1    1    2    0    0  0.10537091912E+02  0.15329331378E+02 -0.36154481759E+02  0.40659134985E+02  0.00000000000E+00 0. -1.
         11    1    3    3    0    0 -0.67466974543E+01  0.33973487673E+01  0.68631963567E+00  0.75849152988E+01  0.51100000000E-03 0. -1.
        -11    1    3    3    0    0  0.26083795528E+01 -0.17427074867E+02  0.27189767469E+02  0.32400463540E+02  0.51100000000E-03 0.  1.
        -12    1    3    3    0    0 -0.63987740102E+01 -0.12996052785E+01  0.82783946539E+01  0.10543486177E+02  0.00000000000E+00 0.  1.
</event>
<event>
 7    1  0.5972636E-013  0.5052889E+02  0.7816164E-02  0.1300439E+00
        -11   -1    0    0    0    0  0.00000000000E+00  0.00000000000E+00  0.45593999997E+02  0.45594000000E+02  0.51100000000E-03 0. -1.
         11   -1    0    0    0    0 -0.00000000000E+00 -0.00000000000E+00 -0.45593999997E+02  0.45594000000E+02  0.51100000000E-03 0.  1.
    9900012    2    1    2    0    0  0.23186431069E+02 -0.16085423682E+02 -0.29271341877E+02  0.50528894058E+02  0.30000103978E+02 0.  0.
         12    1    1    2    0    0 -0.23186431069E+02  0.16085423682E+02  0.29271341877E+02  0.40659105942E+02  0.00000000000E+00 0. -1.
         11    1    3    3    0    0  0.19784855937E+01 -0.79014177901E+01 -0.24409877518E+01  0.85032481914E+01  0.51100000000E-03 0. -1.
        -11    1    3    3    0    0  0.29180034068E+01  0.46005781436E+01 -0.16611334234E+02  0.17481890299E+02  0.51100000000E-03 0.  1.
        -12    1    3    3    0    0  0.18289942068E+02 -0.12784584035E+02 -0.10219019891E+02  0.24543755567E+02  0.00000000000E+00 0.  1.
</event>
<event>
 7    1  0.5972636E-013  0.5052886E+02  0.7816164E-02  0.1300439E+00
        -11   -1    0    0    0    0  0.00000000000E+00  0.00000000000E+00  0.45593999997E+02  0.45594000000E+02  0.51100000000E-03 0.  1.
         11   -1    0    0    0    0 -0.00000000000E+00 -0.00000000000E+00 -0.45593999997E+02  0.45594000000E+02  0.51100000000E-03 0. -1.
    9900012    2    1    2    0    0  0.93691986339E+01  0.27746798113E+02  0.28204586996E+02  0.50528863066E+02  0.30000009776E+02 0.  0.
         12    1    1    2    0    0 -0.93691986339E+01 -0.27746798113E+02 -0.28204586996E+02  0.40659136934E+02  0.00000000000E+00 0. -1.
         11    1    3    3    0    0  0.41814339682E+01  0.63088875949E+00 -0.25227710879E+01  0.49241024441E+01  0.51100000000E-03 0. -1.
        -11    1    3    3    0    0  0.40786707262E+01  0.30017819173E+02  0.25858553638E+02  0.39829258332E+02  0.51100000000E-03 0.  1.
        -12    1    3    3    0    0  0.11090939395E+01 -0.29019098193E+01  0.48688044468E+01  0.57755022905E+01  0.00000000000E+00 0.  1.
</event>
<event>
 7    1  0.5972636E-013  0.5052886E+02  0.7816164E-02  0.1300439E+00
        -11   -1    0    0    0    0  0.00000000000E+00  0.00000000000E+00  0.45593999997E+02  0.45594000000E+02  0.51100000000E-03 0.  1.
         11   -1    0    0    0    0 -0.00000000000E+00 -0.00000000000E+00 -0.45593999997E+02  0.45594000000E+02  0.51100000000E-03 0. -1.
    9900012    2    1    2    0    0 -0.19008761018E+02 -0.22629115243E+02  0.27924106547E+02  0.50528861070E+02  0.30000003709E+02 0.  0.
         12    1    1    2    0    0  0.19008761018E+02  0.22629115243E+02 -0.27924106547E+02  0.40659138930E+02  0.00000000000E+00 0. -1.
         11    1    3    3    0    0 -0.11480759248E+02 -0.12938079114E+02  0.30877345004E+01  0.17570880134E+02  0.51100000000E-03 0.  1.
        -11    1    3    3    0    0  0.57541342350E+01 -0.26951293468E+01  0.10026384324E+02  0.11870221812E+02  0.51100000000E-03 0. -1.
        -12    1    3    3    0    0 -0.13282136005E+02 -0.69959067815E+01  0.14809987722E+02  0.21087759124E+02  0.00000000000E+00 0.  1.
</event>
<event>
 7    1  0.5972636E-013  0.5052886E+02  0.7816164E-02  0.1300439E+00
        -11   -1    0    0    0    0  0.00000000000E+00  0.00000000000E+00  0.45593999997E+02  0.45594000000E+02  0.51100000000E-03 0.  1.
         11   -1    0    0    0    0 -0.00000000000E+00 -0.00000000000E+00 -0.45593999997E+02  0.45594000000E+02  0.51100000000E-03 0. -1.
    9900012    2    1    2    0    0  0.88274390431E+01  0.76913677037E+01  0.38936937899E+02  0.50528856500E+02  0.29999989817E+02 0.  0.
         12    1    1    2    0    0 -0.88274390431E+01 -0.76913677037E+01 -0.38936937899E+02  0.40659143500E+02  0.00000000000E+00 0. -1.
         11    1    3    3    0    0  0.13178266827E+02  0.14965771739E+02  0.22573019808E+02  0.30119466526E+02  0.51100000000E-03 0. -1.
        -11    1    3    3    0    0 -0.26988144073E+01 -0.85554764932E+01  0.88179249142E+01  0.12579172361E+02  0.51100000000E-03 0.  1.
        -12    1    3    3    0    0 -0.16520133761E+01  0.12810724578E+01  0.75459931774E+01  0.78302176132E+01  0.00000000000E+00 0.  1.
</event>
<event>
 7    1  0.5972636E-013  0.5052886E+02  0.7816164E-02  0.1300439E+00
        -11   -1    0    0    0    0  0.00000000000E+00  0.00000000000E+00  0.45593999997E+02  0.45594000000E+02  0.51100000000E-03 0.  1.
         11   -1    0    0    0    0 -0.00000000000E+00 -0.00000000000E+00 -0.45593999997E+02  0.45594000000E+02  0.51100000000E-03 0. -1.
    9900012    2    1    2    0    0  0.14531242534E+02  0.78646759051E+01  0.37150444071E+02  0.50528860420E+02  0.30000001734E+02 0.  0.
         12    1    1    2    0    0 -0.14531242534E+02 -0.78646759051E+01 -0.37150444071E+02  0.40659139580E+02  0.00000000000E+00 0. -1.
         11    1    3    3    0    0 -0.41626425955E+01  0.46973202741E+01  0.17183849736E+02  0.18294182221E+02  0.51100000000E-03 0. -1.
        -11    1    3    3    0    0  0.19257254326E+02 -0.26652327177E+01  0.15630100992E+02  0.24944846499E+02  0.51100000000E-03 0.  1.
        -12    1    3    3    0    0 -0.56336919619E+00  0.58325883487E+01  0.43364933438E+01  0.72898317002E+01  0.00000000000E+00 0.  1.
</event>
<event>
 7    1  0.5972636E-013  0.5052886E+02  0.7816164E-02  0.1300439E+00
        -11   -1    0    0    0    0  0.00000000000E+00  0.00000000000E+00  0.45593999997E+02  0.45594000000E+02  0.51100000000E-03 0.  1.
         11   -1    0    0    0    0 -0.00000000000E+00 -0.00000000000E+00 -0.45593999997E+02  0.45594000000E+02  0.51100000000E-03 0. -1.
    9900012    2    1    2    0    0 -0.26439037145E+02  0.17172849553E+02  0.25675593088E+02  0.50528861699E+02  0.30000005621E+02 0.  0.
         12    1    1    2    0    0  0.26439037145E+02 -0.17172849553E+02 -0.25675593088E+02  0.40659138301E+02  0.00000000000E+00 0. -1.
         11    1    3    3    0    0  0.38336710547E+01  0.10152679563E+02  0.63553753237E+01  0.12576356063E+02  0.51100000000E-03 0. -1.
        -11    1    3    3    0    0 -0.11751736418E+02 -0.77836124330E+00  0.11280030932E+02  0.16307919952E+02  0.51100000000E-03 0.  1.
        -12    1    3    3    0    0 -0.18520971782E+02  0.77985312337E+01  0.80401868325E+01  0.21644585685E+02  0.00000000000E+00 0.  1.
</event>
<event>
 7    1  0.5972636E-013  0.5052886E+02  0.7816164E-02  0.1300439E+00
        -11   -1    0    0    0    0  0.00000000000E+00  0.00000000000E+00  0.45593999997E+02  0.45594000000E+02  0.51100000000E-03 0.  1.
         11   -1    0    0    0    0 -0.00000000000E+00 -0.00000000000E+00 -0.45593999997E+02  0.45594000000E+02  0.51100000000E-03 0. -1.
    9900012    2    1    2    0    0 -0.73533306857E+01  0.71895324893E+01  0.39337068413E+02  0.50528858336E+02  0.29999995397E+02 0.  0.
         12    1    1    2    0    0  0.73533306857E+01 -0.71895324893E+01 -0.39337068413E+02  0.40659141664E+02  0.00000000000E+00 0. -1.
         11    1    3    3    0    0 -0.40573788128E+01 -0.77109759405E+01  0.41866689090E+01  0.96669369296E+01  0.51100000000E-03 0. -1.
        -11    1    3    3    0    0  0.83385967666E+00  0.13497132779E+02  0.14792912980E+02  0.20042409784E+02  0.51100000000E-03 0.  1.
        -12    1    3    3    0    0 -0.41298115495E+01  0.14033756504E+01  0.20357486523E+02  0.20819511622E+02  0.00000000000E+00 0.  1.
</event>
<event>
 7    1  0.5972636E-013  0.5052887E+02  0.7816164E-02  0.1300439E+00
        -11   -1    0    0    0    0  0.00000000000E+00  0.00000000000E+00  0.45593999997E+02  0.45594000000E+02  0.51100000000E-03 0.  1.
         11   -1    0    0    0    0 -0.00000000000E+00 -0.00000000000E+00 -0.45593999997E+02  0.45594000000E+02  0.51100000000E-03 0. -1.
    9900012    2    1    2    0    0 -0.18373686804E+02 -0.31149424451E+02  0.18581866264E+02  0.50528871083E+02  0.30000034144E+02 0.  0.
         12    1    1    2    0    0  0.18373686804E+02  0.31149424451E+02 -0.18581866264E+02  0.40659128917E+02  0.00000000000E+00 0. -1.
         11    1    3    3    0    0 -0.20894487924E+02 -0.32306614731E+02  0.11076397621E+02  0.40037277199E+02  0.51100000000E-03 0. -1.
        -11    1    3    3    0    0  0.14861341662E+01  0.33191681973E+01  0.13384115256E+01  0.38751539266E+01  0.51100000000E-03 0.  1.
        -12    1    3    3    0    0  0.10346669533E+01 -0.21619779169E+01  0.61670571174E+01  0.66164399572E+01  0.00000000000E+00 0.  1.
</event>
<event>
 7    1  0.5972636E-013  0.5052883E+02  0.7816164E-02  0.1300439E+00
        -11   -1    0    0    0    0  0.00000000000E+00  0.00000000000E+00  0.45593999997E+02  0.45594000000E+02  0.51100000000E-03 0.  1.
         11   -1    0    0    0    0 -0.00000000000E+00 -0.00000000000E+00 -0.45593999997E+02  0.45594000000E+02  0.51100000000E-03 0. -1.
    9900012    2    1    2    0    0  0.17740341783E+02  0.96221405527E+01  0.35296780002E+02  0.50528831368E+02  0.29999913425E+02 0.  0.
         12    1    1    2    0    0 -0.17740341783E+02 -0.96221405527E+01 -0.35296780002E+02  0.40659168632E+02  0.00000000000E+00 0. -1.
         11    1    3    3    0    0  0.66079947278E-01 -0.23585074692E+01  0.19631801870E+02  0.19773076872E+02  0.51100000000E-03 0. -1.
        -11    1    3    3    0    0  0.13784390327E+02  0.15820997594E+02  0.11967510099E+02  0.24156462485E+02  0.51100000000E-03 0.  1.
         12    1    3    3    0    0  0.38898715087E+01 -0.38403495724E+01  0.36974680324E+01  0.65992920107E+01  0.00000000000E+00 0. -1.
</event>
<event>
 7    1  0.5972636E-013  0.5052886E+02  0.7816164E-02  0.1300439E+00
        -11   -1    0    0    0    0  0.00000000000E+00  0.00000000000E+00  0.45593999997E+02  0.45594000000E+02  0.51100000000E-03 0.  1.
         11   -1    0    0    0    0 -0.00000000000E+00 -0.00000000000E+00 -0.45593999997E+02  0.45594000000E+02  0.51100000000E-03 0. -1.
    9900012    2    1    2    0    0 -0.24477726193E+02  0.14008655084E+02  0.29287610774E+02  0.50528860293E+02  0.30000001348E+02 0.  0.
         12    1    1    2    0    0  0.24477726193E+02 -0.14008655084E+02 -0.29287610774E+02  0.40659139707E+02  0.00000000000E+00 0. -1.
         11    1    3    3    0    0 -0.94321127419E+01 -0.82572780260E+01  0.15747856581E+02  0.20128148905E+02  0.51100000000E-03 0. -1.
        -11    1    3    3    0    0 -0.80018278821E+01  0.11383114041E+02  0.46047108340E+01  0.14656326172E+02  0.51100000000E-03 0.  1.
         12    1    3    3    0    0 -0.70437855688E+01  0.10882819069E+02  0.89350433588E+01  0.15744385217E+02  0.00000000000E+00 0. -1.
</event>
<event>
 7    1  0.5972636E-013  0.5052889E+02  0.7816164E-02  0.1300439E+00
        -11   -1    0    0    0    0  0.00000000000E+00  0.00000000000E+00  0.45593999997E+02  0.45594000000E+02  0.51100000000E-03 0.  1.
         11   -1    0    0    0    0 -0.00000000000E+00 -0.00000000000E+00 -0.45593999997E+02  0.45594000000E+02  0.51100000000E-03 0. -1.
    9900012    2    1    2    0    0  0.17335467018E+02 -0.26774640364E+02  0.25214352587E+02  0.50528888356E+02  0.30000086646E+02 0.  0.
         12    1    1    2    0    0 -0.17335467018E+02  0.26774640364E+02 -0.25214352587E+02  0.40659111644E+02  0.00000000000E+00 0. -1.
         11    1    3    3    0    0  0.18887582345E+02 -0.84910681857E+01  0.90947486694E+01  0.22617547599E+02  0.51100000000E-03 0. -1.
        -11    1    3    3    0    0 -0.20233527435E+01 -0.11100944333E+02  0.17262341996E+02  0.20623127136E+02  0.51100000000E-03 0.  1.
         12    1    3    3    0    0  0.47123741656E+00 -0.71826278455E+01 -0.11427380788E+01  0.72882136210E+01  0.00000000000E+00 0. -1.
</event>
<event>
 7    1  0.5972636E-013  0.5052881E+02  0.7816164E-02  0.1300439E+00
        -11   -1    0    0    0    0  0.00000000000E+00  0.00000000000E+00  0.45593999997E+02  0.45594000000E+02  0.51100000000E-03 0. -1.
         11   -1    0    0    0    0 -0.00000000000E+00 -0.00000000000E+00 -0.45593999997E+02  0.45594000000E+02  0.51100000000E-03 0.  1.
    9900012    2    1    2    0    0  0.27165982920E+02 -0.15612088357E+02 -0.25912189191E+02  0.50528813098E+02  0.29999857891E+02 0.  0.
         12    1    1    2    0    0 -0.27165982920E+02  0.15612088357E+02  0.25912189191E+02  0.40659186902E+02  0.00000000000E+00 0. -1.
         11    1    3    3    0    0  0.71986850417E+01  0.63007885409E+01 -0.23884982756E+01  0.98603208285E+01  0.51100000000E-03 0. -1.
        -11    1    3    3    0    0  0.11460080001E+02 -0.80788714454E+01 -0.19357472405E+02  0.23902161735E+02  0.51100000000E-03 0.  1.
         12    1    3    3    0    0  0.85072178778E+01 -0.13834005453E+02 -0.41662185103E+01  0.16766330534E+02  0.00000000000E+00 0. -1.
</event>
<event>
 7    1  0.5972636E-013  0.5052885E+02  0.7816164E-02  0.1300439E+00
        -11   -1    0    0    0    0  0.00000000000E+00  0.00000000000E+00  0.45593999997E+02  0.45594000000E+02  0.51100000000E-03 0. -1.
         11   -1    0    0    0    0 -0.00000000000E+00 -0.00000000000E+00 -0.45593999997E+02  0.45594000000E+02  0.51100000000E-03 0.  1.
    9900012    2    1    2    0    0 -0.19258235268E+02  0.33035362364E+02 -0.13818514203E+02  0.50528854326E+02  0.29999983208E+02 0.  0.
         12    1    1    2    0    0  0.19258235268E+02 -0.33035362364E+02  0.13818514203E+02  0.40659145674E+02  0.00000000000E+00 0. -1.
         11    1    3    3    0    0 -0.38020251816E+01  0.22047521104E+02 -0.17380234829E+02  0.28330569096E+02  0.51100000000E-03 0.  1.
        -11    1    3    3    0    0 -0.89061960061E+01  0.53788512331E+00 -0.11491945220E+01  0.89961267229E+01  0.51100000000E-03 0. -1.
        -12    1    3    3    0    0 -0.65500140806E+01  0.10449956137E+02  0.47109151475E+01  0.13202158507E+02  0.00000000000E+00 0.  1.
</event>
<event>
 7    1  0.5972636E-013  0.5052886E+02  0.7816164E-02  0.1300439E+00
        -11   -1    0    0    0    0  0.00000000000E+00  0.00000000000E+00  0.45593999997E+02  0.45594000000E+02  0.51100000000E-03 0. -1.
         11   -1    0    0    0    0 -0.00000000000E+00 -0.00000000000E+00 -0.45593999997E+02  0.45594000000E+02  0.51100000000E-03 0.  1.
    9900012    2    1    2    0    0  0.27378449588E+02 -0.21155542359E+02 -0.21354844595E+02  0.50528857584E+02  0.29999993112E+02 0.  0.
         12    1    1    2    0    0 -0.27378449588E+02  0.21155542359E+02  0.21354844595E+02  0.40659142416E+02  0.00000000000E+00 0. -1.
         11    1    3    3    0    0  0.56857374628E+01  0.59467245092E+01 -0.17478775109E+01  0.84110771568E+01  0.51100000000E-03 0. -1.
        -11    1    3    3    0    0  0.13332477229E+02 -0.21740201681E+02 -0.77578132874E+01  0.26656612415E+02  0.51100000000E-03 0.  1.
        -12    1    3    3    0    0  0.83602348968E+01 -0.53620651867E+01 -0.11849153797E+02  0.15461168012E+02  0.00000000000E+00 0.  1.
</event>
<event>
 7    1  0.5972636E-013  0.5052886E+02  0.7816164E-02  0.1300439E+00
        -11   -1    0    0    0    0  0.00000000000E+00  0.00000000000E+00  0.45593999997E+02  0.45594000000E+02  0.51100000000E-03 0. -1.
         11   -1    0    0    0    0 -0.00000000000E+00 -0.00000000000E+00 -0.45593999997E+02  0.45594000000E+02  0.51100000000E-03 0.  1.
    9900012    2    1    2    0    0 -0.25068142616E+02  0.13530945447E+02 -0.29011508868E+02  0.50528857047E+02  0.29999991479E+02 0.  0.
         12    1    1    2    0    0  0.25068142616E+02 -0.13530945447E+02  0.29011508868E+02  0.40659142953E+02  0.00000000000E+00 0. -1.
         11    1    3    3    0    0  0.39851213881E+01  0.70782550892E+01 -0.52828945091E+01  0.96897813309E+01  0.51100000000E-03 0. -1.
        -11    1    3    3    0    0 -0.12223770378E+02  0.84082249786E+01 -0.17117168194E+02  0.22652069592E+02  0.51100000000E-03 0.  1.
         12    1    3    3    0    0 -0.16829493626E+02 -0.19555346212E+01 -0.66114461649E+01  0.18187006124E+02  0.00000000000E+00 0. -1.
</event>
<event>
 7    1  0.5972636E-013  0.5052886E+02  0.7816164E-02  0.1300439E+00
        -11   -1    0    0    0    0  0.00000000000E+00  0.00000000000E+00  0.45593999997E+02  0.45594000000E+02  0.51100000000E-03 0.  1.
         11   -1    0    0    0    0 -0.00000000000E+00 -0.00000000000E+00 -0.45593999997E+02  0.45594000000E+02  0.51100000000E-03 0. -1.
    9900012    2    1    2    0    0  0.20523388666E+02 -0.32115897720E+02  0.14160699280E+02  0.50528858681E+02  0.29999996446E+02 0.  0.
         12    1    1    2    0    0 -0.20523388666E+02  0.32115897720E+02 -0.14160699280E+02  0.40659141319E+02  0.00000000000E+00 0. -1.
         11    1    3    3    0    0  0.10061990577E+01  0.38985124941E+01 -0.11373119508E+01  0.41838158355E+01  0.51100000000E-03 0. -1.
        -11    1    3    3    0    0  0.97219632418E+01 -0.31429415316E+02  0.12289667154E+02  0.35119234551E+02  0.51100000000E-03 0.  1.
        -12    1    3    3    0    0  0.97952263665E+01 -0.45849948979E+01  0.30083440765E+01  0.11225808295E+02  0.00000000000E+00 0.  1.
</event>
<event>
 7    1  0.5972636E-013  0.5052886E+02  0.7816164E-02  0.1300439E+00
        -11   -1    0    0    0    0  0.00000000000E+00  0.00000000000E+00  0.45593999997E+02  0.45594000000E+02  0.51100000000E-03 0.  1.
         11   -1    0    0    0    0 -0.00000000000E+00 -0.00000000000E+00 -0.45593999997E+02  0.45594000000E+02  0.51100000000E-03 0. -1.
    9900012    2    1    2    0    0 -0.14078768782E+02  0.16722671086E+01  0.38107181960E+02  0.50528861733E+02  0.30000005724E+02 0.  0.
         12    1    1    2    0    0  0.14078768782E+02 -0.16722671086E+01 -0.38107181960E+02  0.40659138267E+02  0.00000000000E+00 0. -1.
         11    1    3    3    0    0 -0.63276611821E+01  0.40119632147E+01  0.38924154826E+02  0.39638680276E+02  0.51100000000E-03 0.  1.
        -11    1    3    3    0    0 -0.76376528419E+01  0.83464432392E+00 -0.58228142990E+00  0.77051556769E+01  0.51100000000E-03 0. -1.
        -12    1    3    3    0    0 -0.11345475801E+00 -0.31743404300E+01 -0.23469143626E+00  0.31850257798E+01  0.00000000000E+00 0.  1.
</event>
<event>
 7    1  0.5972636E-013  0.5052885E+02  0.7816164E-02  0.1300439E+00
        -11   -1    0    0    0    0  0.00000000000E+00  0.00000000000E+00  0.45593999997E+02  0.45594000000E+02  0.51100000000E-03 0. -1.
         11   -1    0    0    0    0 -0.00000000000E+00 -0.00000000000E+00 -0.45593999997E+02  0.45594000000E+02  0.51100000000E-03 0.  1.
    9900012    2    1    2    0    0  0.25829051367E+02  0.63287889833E+01 -0.30756671042E+02  0.50528852467E+02  0.29999977559E+02 0.  0.
         12    1    1    2    0    0 -0.25829051367E+02 -0.63287889833E+01  0.30756671042E+02  0.40659147533E+02  0.00000000000E+00 0. -1.
         11    1    3    3    0    0  0.29044343894E+01 -0.26606918738E+01  0.19648448386E+01  0.44017764449E+01  0.51100000000E-03 0. -1.
        -11    1    3    3    0    0  0.26336543913E+02  0.62256973693E+01 -0.23214635344E+02  0.35655184019E+02  0.51100000000E-03 0.  1.
        -12    1    3    3    0    0 -0.34119269354E+01  0.27637834879E+01 -0.95068805372E+01  0.10471892003E+02  0.00000000000E+00 0.  1.
</event>
<event>
 7    1  0.5972636E-013  0.5052886E+02  0.7816164E-02  0.1300439E+00
        -11   -1    0    0    0    0  0.00000000000E+00  0.00000000000E+00  0.45593999997E+02  0.45594000000E+02  0.51100000000E-03 0. -1.
         11   -1    0    0    0    0 -0.00000000000E+00 -0.00000000000E+00 -0.45593999997E+02  0.45594000000E+02  0.51100000000E-03 0.  1.
    9900012    2    1    2    0    0 -0.43076363458E+00 -0.13447080090E+01 -0.40634617080E+02  0.50528857090E+02  0.29999991611E+02 0.  0.
         12    1    1    2    0    0  0.43076363458E+00  0.13447080090E+01  0.40634617080E+02  0.40659142910E+02  0.00000000000E+00 0. -1.
         11    1    3    3    0    0  0.11036888676E+02  0.62534854661E+01 -0.10489559017E+02  0.16460554084E+02  0.51100000000E-03 0. -1.
        -11    1    3    3    0    0 -0.95518635882E+01 -0.62257291569E+01 -0.15538507818E+02  0.19272857262E+02  0.51100000000E-03 0.  1.
         12    1    3    3    0    0 -0.19157887219E+01 -0.13724643182E+01 -0.14606550245E+02  0.14795445745E+02  0.00000000000E+00 0. -1.
</event>
<event>
 7    1  0.5972636E-013  0.5052886E+02  0.7816164E-02  0.1300439E+00
        -11   -1    0    0    0    0  0.00000000000E+00  0.00000000000E+00  0.45593999997E+02  0.45594000000E+02  0.51100000000E-03 0.  1.
         11   -1    0    0    0    0 -0.00000000000E+00 -0.00000000000E+00 -0.45593999997E+02  0.45594000000E+02  0.51100000000E-03 0. -1.
    9900012    2    1    2    0    0  0.62497742332E+01  0.30636227442E+02  0.25990915225E+02  0.50528858542E+02  0.29999996025E+02 0.  0.
         12    1    1    2    0    0 -0.62497742332E+01 -0.30636227442E+02 -0.25990915225E+02  0.40659141458E+02  0.00000000000E+00 0. -1.
         11    1    3    3    0    0  0.84014407582E+01  0.84174357640E+01  0.68679045846E+01  0.13733373413E+02  0.51100000000E-03 0. -1.
        -11    1    3    3    0    0 -0.10002003848E+02  0.21190496643E+02  0.15451338948E+02  0.28068151070E+02  0.51100000000E-03 0.  1.
        -12    1    3    3    0    0  0.78503373229E+01  0.10282950351E+01  0.36716716923E+01  0.87273340590E+01  0.00000000000E+00 0.  1.
</event>
<event>
 7    1  0.5972636E-013  0.5052886E+02  0.7816164E-02  0.1300439E+00
        -11   -1    0    0    0    0  0.00000000000E+00  0.00000000000E+00  0.45593999997E+02  0.45594000000E+02  0.51100000000E-03 0.  1.
         11   -1    0    0    0    0 -0.00000000000E+00 -0.00000000000E+00 -0.45593999997E+02  0.45594000000E+02  0.51100000000E-03 0. -1.
    9900012    2    1    2    0    0  0.22627711458E+02 -0.12614691325E+02  0.31337232281E+02  0.50528857239E+02  0.29999992062E+02 0.  0.
         12    1    1    2    0    0 -0.22627711458E+02  0.12614691325E+02 -0.31337232281E+02  0.40659142761E+02  0.00000000000E+00 0. -1.
         11    1    3    3    0    0  0.25344627467E+02 -0.11448323643E+01  0.18128464132E+02  0.31181757402E+02  0.51100000000E-03 0. -1.
        -11    1    3    3    0    0  0.55179484988E+00 -0.84362961488E+01  0.12084219942E+02  0.14748014854E+02  0.51100000000E-03 0.  1.
         12    1    3    3    0    0 -0.32687108591E+01 -0.30335628116E+01  0.11245482076E+01  0.45990849833E+01  0.00000000000E+00 0. -1.
</event>
<event>
 7    1  0.5972636E-013  0.5052885E+02  0.7816164E-02  0.1300439E+00
        -11   -1    0    0    0    0  0.00000000000E+00  0.00000000000E+00  0.45593999997E+02  0.45594000000E+02  0.51100000000E-03 0.  1.
         11   -1    0    0    0    0 -0.00000000000E+00 -0.00000000000E+00 -0.45593999997E+02  0.45594000000E+02  0.51100000000E-03 0. -1.
    9900012    2    1    2    0    0 -0.18426292874E+02  0.20024448350E+01  0.36188784870E+02  0.50528853369E+02  0.29999980300E+02 0.  0.
         12    1    1    2    0    0  0.18426292874E+02 -0.20024448350E+01 -0.36188784870E+02  0.40659146631E+02  0.00000000000E+00 0. -1.
         11    1    3    3    0    0 -0.27904390621E+01  0.96726557363E+01  0.10659931355E+02  0.14662228886E+02  0.51100000000E-03 0. -1.
        -11    1    3    3    0    0 -0.18299421825E+01 -0.77928515637E+01  0.18953088937E+02  0.20574178098E+02  0.51100000000E-03 0.  1.
        -12    1    3    3    0    0 -0.13805911629E+02  0.12264066230E+00  0.65757645781E+01  0.15292446385E+02  0.00000000000E+00 0.  1.
</event>
<event>
 7    1  0.5972636E-013  0.5052886E+02  0.7816164E-02  0.1300439E+00
        -11   -1    0    0    0    0  0.00000000000E+00  0.00000000000E+00  0.45593999997E+02  0.45594000000E+02  0.51100000000E-03 0.  1.
         11   -1    0    0    0    0 -0.00000000000E+00 -0.00000000000E+00 -0.45593999997E+02  0.45594000000E+02  0.51100000000E-03 0. -1.
    9900012    2    1    2    0    0 -0.30935204036E+02  0.26383423509E+02  0.30608557082E+00  0.50528861135E+02  0.30000003907E+02 0.  0.
         12    1    1    2    0    0  0.30935204036E+02 -0.26383423509E+02 -0.30608557082E+00  0.40659138865E+02  0.00000000000E+00 0. -1.
         11    1    3    3    0    0 -0.13362492995E+02 -0.33080342405E+01 -0.32082386169E+01  0.14134783510E+02  0.51100000000E-03 0.  1.
        -11    1    3    3    0    0 -0.16980438319E+02  0.21757194280E+02  0.56163092454E+01  0.28164760220E+02  0.51100000000E-03 0. -1.
         12    1    3    3    0    0 -0.59227272232E+00  0.79342634695E+01 -0.21019850577E+01  0.82293174057E+01  0.00000000000E+00 0. -1.
</event>
<event>
 7    1  0.5972636E-013  0.5052887E+02  0.7816164E-02  0.1300439E+00
        -11   -1    0    0    0    0  0.00000000000E+00  0.00000000000E+00  0.45593999997E+02  0.45594000000E+02  0.51100000000E-03 0.  1.
         11   -1    0    0    0    0 -0.00000000000E+00 -0.00000000000E+00 -0.45593999997E+02  0.45594000000E+02  0.51100000000E-03 0. -1.
    9900012    2    1    2    0    0  0.26082917696E+01  0.40004953825E+02  0.67797939128E+01  0.50528866684E+02  0.30000020774E+02 0.  0.
         12    1    1    2    0    0 -0.26082917696E+01 -0.40004953825E+02 -0.67797939128E+01  0.40659133316E+02  0.00000000000E+00 0. -1.
         11    1    3    3    0    0  0.23996953662E+01  0.75222803304E+01  0.10113657551E+02  0.12830795320E+02  0.51100000000E-03 0. -1.
        -11    1    3    3    0    0 -0.22869446496E+01  0.32819809992E+02  0.74116827996E+00  0.32907740342E+02  0.51100000000E-03 0.  1.
         12    1    3    3    0    0  0.24955410530E+01 -0.33713649793E+00 -0.40750319184E+01  0.47903310221E+01  0.00000000000E+00 0. -1.
</event>
<event>
 7    1  0.5972636E-013  0.5052886E+02  0.7816164E-02  0.1300439E+00
        -11   -1    0    0    0    0  0.00000000000E+00  0.00000000000E+00  0.45593999997E+02  0.45594000000E+02  0.51100000000E-03 0.  1.
         11   -1    0    0    0    0 -0.00000000000E+00 -0.00000000000E+00 -0.45593999997E+02  0.45594000000E+02  0.51100000000E-03 0. -1.
    9900012    2    1    2    0    0  0.77993402191E+01  0.36068018298E+02  0.17071449092E+02  0.50528855569E+02  0.29999986987E+02 0.  0.
         12    1    1    2    0    0 -0.77993402191E+01 -0.36068018298E+02 -0.17071449092E+02  0.40659144431E+02  0.00000000000E+00 0. -1.
         11    1    3    3    0    0  0.12899127542E+01 -0.16044658543E+01  0.21775985406E+00  0.20701703327E+01  0.51100000000E-03 0. -1.
        -11    1    3    3    0    0  0.13304754519E+02  0.35233795391E+02  0.11210443109E+02  0.39295176109E+02  0.51100000000E-03 0.  1.
        -12    1    3    3    0    0 -0.67953270542E+01  0.24386887607E+01  0.56432461289E+01  0.91635091268E+01  0.00000000000E+00 0.  1.
</event>
<event>
 7    1  0.5972636E-013  0.5052888E+02  0.7816164E-02  0.1300439E+00
        -11   -1    0    0    0    0  0.00000000000E+00  0.00000000000E+00  0.45593999997E+02  0.45594000000E+02  0.51100000000E-03 0. -1.
         11   -1    0    0    0    0 -0.00000000000E+00 -0.00000000000E+00 -0.45593999997E+02  0.45594000000E+02  0.51100000000E-03 0.  1.
    9900012    2    1    2    0    0 -0.94433839092E+01  0.37583016943E+02 -0.12308679371E+02  0.50528877407E+02  0.30000053366E+02 0.  0.
         12    1    1    2    0    0  0.94433839092E+01 -0.37583016943E+02  0.12308679371E+02  0.40659122593E+02  0.00000000000E+00 0. -1.
         11    1    3    3    0    0  0.19960588776E+01  0.58853196747E+01 -0.58991585078E+00  0.62425347166E+01  0.51100000000E-03 0. -1.
        -11    1    3    3    0    0 -0.15281660389E+02  0.18883575781E+02 -0.17266860167E+02  0.29803742027E+02  0.51100000000E-03 0.  1.
        -12    1    3    3    0    0  0.38422176021E+01  0.12814121487E+02  0.55480966463E+01  0.14482600664E+02  0.00000000000E+00 0.  1.
</event>
<event>
 7    1  0.5972636E-013  0.5052886E+02  0.7816164E-02  0.1300439E+00
        -11   -1    0    0    0    0  0.00000000000E+00  0.00000000000E+00  0.45593999997E+02  0.45594000000E+02  0.51100000000E-03 0.  1.
         11   -1    0    0    0    0 -0.00000000000E+00 -0.00000000000E+00 -0.45593999997E+02  0.45594000000E+02  0.51100000000E-03 0. -1.
    9900012    2    1    2    0    0  0.16785005398E+02 -0.16419862798E+02  0.33193636928E+02  0.50528857940E+02  0.29999994196E+02 0.  0.
         12    1    1    2    0    0 -0.16785005398E+02  0.16419862798E+02 -0.33193636928E+02  0.40659142060E+02  0.00000000000E+00 0. -1.
         11    1    3    3    0    0  0.30880909091E+01  0.30673783451E+01  0.59374902273E+00  0.43929094616E+01  0.51100000000E-03 0. -1.
        -11    1    3    3    0    0 -0.95741888543E+00 -0.12694404141E+02  0.25481914231E+02  0.28484952178E+02  0.51100000000E-03 0.  1.
        -12    1    3    3    0    0  0.14654333375E+02 -0.67928370026E+01  0.71179736736E+01  0.17650996301E+02  0.00000000000E+00 0.  1.
</event>
<event>
 7    1  0.5972636E-013  0.5052886E+02  0.7816164E-02  0.1300439E+00
        -11   -1    0    0    0    0  0.00000000000E+00  0.00000000000E+00  0.45593999997E+02  0.45594000000E+02  0.51100000000E-03 0. -1.
         11   -1    0    0    0    0 -0.00000000000E+00 -0.00000000000E+00 -0.45593999997E+02  0.45594000000E+02  0.51100000000E-03 0.  1.
    9900012    2    1    2    0    0  0.15693709058E+02  0.20805923044E+02 -0.31208757939E+02  0.50528861915E+02  0.30000006277E+02 0.  0.
         12    1    1    2    0    0 -0.15693709058E+02 -0.20805923044E+02  0.31208757939E+02  0.40659138085E+02  0.00000000000E+00 0. -1.
         11    1    3    3    0    0  0.64868709116E+01 -0.34438264049E+01 -0.34674873820E+01  0.81217549542E+01  0.51100000000E-03 0. -1.
        -11    1    3    3    0    0  0.97763838501E+01  0.25414187833E+02 -0.29549351807E+02  0.40182369478E+02  0.51100000000E-03 0.  1.
        -12    1    3    3    0    0 -0.56954570415E+00 -0.11644383847E+01  0.18080812498E+01  0.22247374827E+01  0.00000000000E+00 0.  1.
</event>
<event>
 7    1  0.5972636E-013  0.5052886E+02  0.7816164E-02  0.1300439E+00
        -11   -1    0    0    0    0  0.00000000000E+00  0.00000000000E+00  0.45593999997E+02  0.45594000000E+02  0.51100000000E-03 0.  1.
         11   -1    0    0    0    0 -0.00000000000E+00 -0.00000000000E+00 -0.45593999997E+02  0.45594000000E+02  0.51100000000E-03 0. -1.
    9900012    2    1    2    0    0 -0.16724236246E+02  0.20346856728E+02  0.30975329843E+02  0.50528859384E+02  0.29999998584E+02 0.  0.
         12    1    1    2    0    0  0.16724236246E+02 -0.20346856728E+02 -0.30975329843E+02  0.40659140616E+02  0.00000000000E+00 0. -1.
         11    1    3    3    0    0 -0.97863342772E+00  0.16273176405E+02  0.24242001441E+01  0.16481830611E+02  0.51100000000E-03 0. -1.
        -11    1    3    3    0    0 -0.44563207504E+01  0.13419479182E+01  0.19982006725E+01  0.50648223103E+01  0.51100000000E-03 0.  1.
         12    1    3    3    0    0 -0.11289282068E+02  0.27317324048E+01  0.26552929027E+02  0.28982206462E+02  0.00000000000E+00 0. -1.
</event>
<event>
 7    1  0.5972636E-013  0.5052886E+02  0.7816164E-02  0.1300439E+00
        -11   -1    0    0    0    0  0.00000000000E+00  0.00000000000E+00  0.45593999997E+02  0.45594000000E+02  0.51100000000E-03 0.  1.
         11   -1    0    0    0    0 -0.00000000000E+00 -0.00000000000E+00 -0.45593999997E+02  0.45594000000E+02  0.51100000000E-03 0. -1.
    9900012    2    1    2    0    0  0.62783536893E+01  0.32352085496E+02  0.23813661053E+02  0.50528860637E+02  0.30000002393E+02 0.  0.
         12    1    1    2    0    0 -0.62783536893E+01 -0.32352085496E+02 -0.23813661053E+02  0.40659139363E+02  0.00000000000E+00 0. -1.
         11    1    3    3    0    0 -0.48817144988E-01  0.21911841889E+02  0.20927286433E+01  0.22011604020E+02  0.51100000000E-03 0. -1.
        -11    1    3    3    0    0  0.52042228671E+01  0.13694646398E+02  0.15008008762E+02  0.20973020834E+02  0.51100000000E-03 0.  1.
         12    1    3    3    0    0  0.11229479672E+01 -0.32544027913E+01  0.67129236472E+01  0.75442357836E+01  0.00000000000E+00 0. -1.
</event>
<event>
 7    1  0.5972636E-013  0.5052885E+02  0.7816164E-02  0.1300439E+00
        -11   -1    0    0    0    0  0.00000000000E+00  0.00000000000E+00  0.45593999997E+02  0.45594000000E+02  0.51100000000E-03 0.  1.
         11   -1    0    0    0    0 -0.00000000000E+00 -0.00000000000E+00 -0.45593999997E+02  0.45594000000E+02  0.51100000000E-03 0. -1.
    9900012    2    1    2    0    0  0.38051882892E+02  0.14322053779E+02  0.31504764544E+00  0.50528852553E+02  0.29999977821E+02 0.  0.
         12    1    1    2    0    0 -0.38051882892E+02 -0.14322053779E+02 -0.31504764544E+00  0.40659147447E+02  0.00000000000E+00 0. -1.
         11    1    3    3    0    0  0.16352410302E+02  0.24994671628E+01 -0.52211609826E+01  0.17346734017E+02  0.51100000000E-03 0. -1.
        -11    1    3    3    0    0  0.39085927156E+01  0.11280665012E+01  0.10990840966E+02  0.11719565540E+02  0.51100000000E-03 0.  1.
        -12    1    3    3    0    0  0.17790879875E+02  0.10694520115E+02 -0.54546323375E+01  0.21462552997E+02  0.00000000000E+00 0.  1.
</event>
<event>
 7    1  0.5972636E-013  0.5052886E+02  0.7816164E-02  0.1300439E+00
        -11   -1    0    0    0    0  0.00000000000E+00  0.00000000000E+00  0.45593999997E+02  0.45594000000E+02  0.51100000000E-03 0. -1.
         11   -1    0    0    0    0 -0.00000000000E+00 -0.00000000000E+00 -0.45593999997E+02  0.45594000000E+02  0.51100000000E-03 0.  1.
    9900012    2    1    2    0    0 -0.29748282007E+02 -0.54745798214E+01 -0.27170466860E+02  0.50528861102E+02  0.30000003805E+02 0.  0.
         12    1    1    2    0    0  0.29748282007E+02  0.54745798214E+01  0.27170466860E+02  0.40659138898E+02  0.00000000000E+00 0. -1.
         11    1    3    3    0    0 -0.19977582024E+02  0.64407129730E+01 -0.16542289917E+02  0.26725155249E+02  0.51100000000E-03 0.  1.
        -11    1    3    3    0    0  0.34277134935E+01 -0.44841501749E+01 -0.68635407249E+00  0.56857633400E+01  0.51100000000E-03 0. -1.
         12    1    3    3    0    0 -0.13198413476E+02 -0.74311426195E+01 -0.99418228702E+01  0.18117942513E+02  0.00000000000E+00 0. -1.
</event>
<event>
 7    1  0.5972636E-013  0.5052885E+02  0.7816164E-02  0.1300439E+00
        -11   -1    0    0    0    0  0.00000000000E+00  0.00000000000E+00  0.45593999997E+02  0.45594000000E+02  0.51100000000E-03 0.  1.
         11   -1    0    0    0    0 -0.00000000000E+00 -0.00000000000E+00 -0.45593999997E+02  0.45594000000E+02  0.51100000000E-03 0. -1.
    9900012    2    1    2    0    0 -0.38697522642E+02  0.10572042474E+02  0.66257103778E+01  0.50528851230E+02  0.29999973800E+02 0.  0.
         12    1    1    2    0    0  0.38697522642E+02 -0.10572042474E+02 -0.66257103778E+01  0.40659148770E+02  0.00000000000E+00 0. -1.
         11    1    3    3    0    0 -0.22808007122E+01  0.27165051270E+00  0.10327428296E+02  0.10579774164E+02  0.51100000000E-03 0. -1.
        -11    1    3    3    0    0 -0.16565498104E+02  0.92407490068E+01 -0.61003736010E+01  0.19925404086E+02  0.51100000000E-03 0.  1.
         12    1    3    3    0    0 -0.19851223825E+02  0.10596429541E+01  0.23986556827E+01  0.20023672981E+02  0.00000000000E+00 0. -1.
</event>
<event>
 7    1  0.5972636E-013  0.5052887E+02  0.7816164E-02  0.1300439E+00
        -11   -1    0    0    0    0  0.00000000000E+00  0.00000000000E+00  0.45593999997E+02  0.45594000000E+02  0.51100000000E-03 0. -1.
         11   -1    0    0    0    0 -0.00000000000E+00 -0.00000000000E+00 -0.45593999997E+02  0.45594000000E+02  0.51100000000E-03 0.  1.
    9900012    2    1    2    0    0  0.25754348526E+02  0.18258366073E+02 -0.25622459684E+02  0.50528870153E+02  0.30000031317E+02 0.  0.
         12    1    1    2    0    0 -0.25754348526E+02 -0.18258366073E+02  0.25622459684E+02  0.40659129847E+02  0.00000000000E+00 0. -1.
         11    1    3    3    0    0  0.65336582523E+00  0.62445500026E+01 -0.65506023818E-01  0.62789794502E+01  0.51100000000E-03 0. -1.
        -11    1    3    3    0    0  0.99190222151E+01 -0.37669773522E+00 -0.22267050999E+02  0.24379303996E+02  0.51100000000E-03 0.  1.
        -12    1    3    3    0    0  0.15181960486E+02  0.12390513805E+02 -0.32899026613E+01  0.19870586707E+02  0.00000000000E+00 0.  1.
</event>
<event>
 7    1  0.5972636E-013  0.5052887E+02  0.7816164E-02  0.1300439E+00
        -11   -1    0    0    0    0  0.00000000000E+00  0.00000000000E+00  0.45593999997E+02  0.45594000000E+02  0.51100000000E-03 0. -1.
         11   -1    0    0    0    0 -0.00000000000E+00 -0.00000000000E+00 -0.45593999997E+02  0.45594000000E+02  0.51100000000E-03 0.  1.
    9900012    2    1    2    0    0  0.34950768722E+02 -0.15461536263E+02  0.13876217667E+02  0.50528871202E+02  0.30000034505E+02 0.  0.
         12    1    1    2    0    0 -0.34950768722E+02  0.15461536263E+02 -0.13876217667E+02  0.40659128798E+02  0.00000000000E+00 0. -1.
         11    1    3    3    0    0  0.34750591674E+02 -0.61856919230E+01  0.54877918485E+01  0.35720893968E+02  0.51100000000E-03 0. -1.
        -11    1    3    3    0    0  0.37783345703E+01 -0.70152459017E+01  0.53374283802E+01  0.95904968151E+01  0.51100000000E-03 0.  1.
         12    1    3    3    0    0 -0.35781575218E+01 -0.22605984386E+01  0.30509974379E+01  0.52174804185E+01  0.00000000000E+00 0. -1.
</event>
<event>
 7    1  0.5972636E-013  0.5052886E+02  0.7816164E-02  0.1300439E+00
        -11   -1    0    0    0    0  0.00000000000E+00  0.00000000000E+00  0.45593999997E+02  0.45594000000E+02  0.51100000000E-03 0.  1.
         11   -1    0    0    0    0 -0.00000000000E+00 -0.00000000000E+00 -0.45593999997E+02  0.45594000000E+02  0.51100000000E-03 0. -1.
    9900012    2    1    2    0    0 -0.68202084368E+01  0.38618884655E+02 -0.10734633173E+02  0.50528857800E+02  0.29999993768E+02 0.  0.
         12    1    1    2    0    0  0.68202084368E+01 -0.38618884655E+02  0.10734633173E+02  0.40659142200E+02  0.00000000000E+00 0. -1.
         11    1    3    3    0    0 -0.68615506706E+01  0.33575084532E+01  0.36398603742E+01  0.84618156694E+01  0.51100000000E-03 0. -1.
        -11    1    3    3    0    0  0.17478763132E+01  0.23204944661E+02 -0.17935537428E+02  0.29380402166E+02  0.51100000000E-03 0.  1.
        -12    1    3    3    0    0 -0.17065340794E+01  0.12056431540E+02  0.35610438811E+01  0.12686639964E+02  0.00000000000E+00 0.  1.
</event>
<event>
 7    1  0.5972636E-013  0.5052886E+02  0.7816164E-02  0.1300439E+00
        -11   -1    0    0    0    0  0.00000000000E+00  0.00000000000E+00  0.45593999997E+02  0.45594000000E+02  0.51100000000E-03 0. -1.
         11   -1    0    0    0    0 -0.00000000000E+00 -0.00000000000E+00 -0.45593999997E+02  0.45594000000E+02  0.51100000000E-03 0.  1.
    9900012    2    1    2    0    0 -0.64139703828E+01  0.38051927225E+02 -0.12809262675E+02  0.50528863365E+02  0.30000010684E+02 0.  0.
         12    1    1    2    0    0  0.64139703828E+01 -0.38051927225E+02  0.12809262675E+02  0.40659136635E+02  0.00000000000E+00 0. -1.
         11    1    3    3    0    0  0.49628917845E+00  0.24353884271E+01  0.49783451932E+01  0.55642915868E+01  0.51100000000E-03 0. -1.
        -11    1    3    3    0    0 -0.40864306471E+01  0.11911175574E+02 -0.16899239591E+02  0.21075087616E+02  0.51100000000E-03 0.  1.
        -12    1    3    3    0    0 -0.28238289141E+01  0.23705363224E+02 -0.88836827647E+00  0.23889484162E+02  0.00000000000E+00 0.  1.
</event>
<event>
 7    1  0.5972636E-013  0.5052886E+02  0.7816164E-02  0.1300439E+00
        -11   -1    0    0    0    0  0.00000000000E+00  0.00000000000E+00  0.45593999997E+02  0.45594000000E+02  0.51100000000E-03 0. -1.
         11   -1    0    0    0    0 -0.00000000000E+00 -0.00000000000E+00 -0.45593999997E+02  0.45594000000E+02  0.51100000000E-03 0.  1.
    9900012    2    1    2    0    0 -0.18067030978E+02  0.35573284637E+02 -0.78287440188E+01  0.50528863005E+02  0.30000009591E+02 0.  0.
         12    1    1    2    0    0  0.18067030978E+02 -0.35573284637E+02  0.78287440188E+01  0.40659136995E+02  0.00000000000E+00 0. -1.
         11    1    3    3    0    0  0.75364824975E+01  0.75194508069E+01 -0.47620908693E+01  0.11662684879E+02  0.51100000000E-03 0. -1.
        -11    1    3    3    0    0 -0.24859498095E+02  0.25505966495E+02 -0.44146009514E+01  0.35889241762E+02  0.51100000000E-03 0.  1.
        -12    1    3    3    0    0 -0.74401538059E+00  0.25478673349E+01  0.13479478019E+01  0.29769363647E+01  0.00000000000E+00 0.  1.
</event>
<event>
 7    1  0.5972636E-013  0.5052888E+02  0.7816164E-02  0.1300439E+00
        -11   -1    0    0    0    0  0.00000000000E+00  0.00000000000E+00  0.45593999997E+02  0.45594000000E+02  0.51100000000E-03 0. -1.
         11   -1    0    0    0    0 -0.00000000000E+00 -0.00000000000E+00 -0.45593999997E+02  0.45594000000E+02  0.51100000000E-03 0.  1.
    9900012    2    1    2    0    0 -0.33137833029E+02 -0.74191726921E+01 -0.22360763865E+02  0.50528882180E+02  0.30000067873E+02 0.  0.
         12    1    1    2    0    0  0.33137833029E+02  0.74191726921E+01  0.22360763865E+02  0.40659117820E+02  0.00000000000E+00 0. -1.
         11    1    3    3    0    0 -0.18216564689E+02  0.16184022243E+01  0.17348006684E+01  0.18370410678E+02  0.51100000000E-03 0. -1.
        -11    1    3    3    0    0 -0.93376299468E+01 -0.11368447919E+02 -0.20095894429E+02  0.24905379223E+02  0.51100000000E-03 0.  1.
        -12    1    3    3    0    0 -0.55836383926E+01  0.23308730026E+01 -0.39996701052E+01  0.72530922787E+01  0.00000000000E+00 0.  1.
</event>
<event>
 7    1  0.5972636E-013  0.5052887E+02  0.7816164E-02  0.1300439E+00
        -11   -1    0    0    0    0  0.00000000000E+00  0.00000000000E+00  0.45593999997E+02  0.45594000000E+02  0.51100000000E-03 0. -1.
         11   -1    0    0    0    0 -0.00000000000E+00 -0.00000000000E+00 -0.45593999997E+02  0.45594000000E+02  0.51100000000E-03 0.  1.
    9900012    2    1    2    0    0 -0.71869447125E+01 -0.35382922852E+02 -0.18696568337E+02  0.50528867306E+02  0.30000022662E+02 0.  0.
         12    1    1    2    0    0  0.71869447125E+01  0.35382922852E+02  0.18696568337E+02  0.40659132694E+02  0.00000000000E+00 0. -1.
         11    1    3    3    0    0 -0.16810004407E+01 -0.13075910102E+02  0.29297992715E+01  0.13505143890E+02  0.51100000000E-03 0. -1.
        -11    1    3    3    0    0 -0.66244072981E+01  0.68467711039E+00 -0.74364265565E+01  0.99825845846E+01  0.51100000000E-03 0.  1.
        -12    1    3    3    0    0  0.11184630263E+01 -0.22991689861E+02 -0.14189941052E+02  0.27041138831E+02  0.00000000000E+00 0.  1.
</event>
<event>
 7    1  0.5972636E-013  0.5052885E+02  0.7816164E-02  0.1300439E+00
        -11   -1    0    0    0    0  0.00000000000E+00  0.00000000000E+00  0.45593999997E+02  0.45594000000E+02  0.51100000000E-03 0.  1.
         11   -1    0    0    0    0 -0.00000000000E+00 -0.00000000000E+00 -0.45593999997E+02  0.45594000000E+02  0.51100000000E-03 0. -1.
    9900012    2    1    2    0    0 -0.25725130154E+02 -0.39346405094E+01  0.31239440640E+02  0.50528851351E+02  0.29999974166E+02 0.  0.
         12    1    1    2    0    0  0.25725130154E+02  0.39346405094E+01 -0.31239440640E+02  0.40659148649E+02  0.00000000000E+00 0. -1.
         11    1    3    3    0    0 -0.18433048395E+02  0.23940536105E+01  0.28104492753E+02  0.33695270870E+02  0.51100000000E-03 0. -1.
        -11    1    3    3    0    0 -0.91063695195E+01 -0.25409966421E+01 -0.25250347207E+01  0.97856236573E+01  0.51100000000E-03 0.  1.
         12    1    3    3    0    0  0.18142877610E+01 -0.37876974778E+01  0.56599826076E+01  0.70479568232E+01  0.00000000000E+00 0. -1.
</event>
<event>
 7    1  0.5972636E-013  0.5052886E+02  0.7816164E-02  0.1300439E+00
        -11   -1    0    0    0    0  0.00000000000E+00  0.00000000000E+00  0.45593999997E+02  0.45594000000E+02  0.51100000000E-03 0. -1.
         11   -1    0    0    0    0 -0.00000000000E+00 -0.00000000000E+00 -0.45593999997E+02  0.45594000000E+02  0.51100000000E-03 0.  1.
    9900012    2    1    2    0    0 -0.35093244720E+02  0.82063929443E+01  0.18822449161E+02  0.50528864464E+02  0.30000014023E+02 0.  0.
         12    1    1    2    0    0  0.35093244720E+02 -0.82063929443E+01 -0.18822449161E+02  0.40659135536E+02  0.00000000000E+00 0. -1.
         11    1    3    3    0    0 -0.19724518685E+02 -0.85956943946E+01  0.14771756629E+02  0.26098800617E+02  0.51100000000E-03 0. -1.
        -11    1    3    3    0    0 -0.10257630457E+02  0.14622674395E+02  0.54971677493E+01  0.18688510978E+02  0.51100000000E-03 0.  1.
         12    1    3    3    0    0 -0.51110955783E+01  0.21794129443E+01 -0.14464752172E+01  0.57415528689E+01  0.00000000000E+00 0. -1.
</event>
<event>
 7    1  0.5972636E-013  0.5052886E+02  0.7816164E-02  0.1300439E+00
        -11   -1    0    0    0    0  0.00000000000E+00  0.00000000000E+00  0.45593999997E+02  0.45594000000E+02  0.51100000000E-03 0. -1.
         11   -1    0    0    0    0 -0.00000000000E+00 -0.00000000000E+00 -0.45593999997E+02  0.45594000000E+02  0.51100000000E-03 0.  1.
    9900012    2    1    2    0    0  0.24802087256E+02  0.31820845971E+02 -0.50454017475E+01  0.50528857740E+02  0.29999993586E+02 0.  0.
         12    1    1    2    0    0 -0.24802087256E+02 -0.31820845971E+02  0.50454017475E+01  0.40659142260E+02  0.00000000000E+00 0. -1.
         11    1    3    3    0    0  0.17419553576E+02  0.12574734187E+02  0.57898044712E+01  0.22250542078E+02  0.51100000000E-03 0. -1.
        -11    1    3    3    0    0  0.11892886764E+02  0.15844363188E+02 -0.10933732826E+02  0.22628104520E+02  0.51100000000E-03 0.  1.
        -12    1    3    3    0    0 -0.45103530845E+01  0.34017485953E+01  0.98526607012E-01  0.56502111416E+01  0.00000000000E+00 0.  1.
</event>
<event>
 7    1  0.5972636E-013  0.5052886E+02  0.7816164E-02  0.1300439E+00
        -11   -1    0    0    0    0  0.00000000000E+00  0.00000000000E+00  0.45593999997E+02  0.45594000000E+02  0.51100000000E-03 0.  1.
         11   -1    0    0    0    0 -0.00000000000E+00 -0.00000000000E+00 -0.45593999997E+02  0.45594000000E+02  0.51100000000E-03 0. -1.
    9900012    2    1    2    0    0 -0.34322728882E+01 -0.98331167180E+01  0.39302607145E+02  0.50528860683E+02  0.30000002533E+02 0.  0.
         12    1    1    2    0    0  0.34322728882E+01  0.98331167180E+01 -0.39302607145E+02  0.40659139317E+02  0.00000000000E+00 0. -1.
         11    1    3    3    0    0 -0.11817439043E+02 -0.95862208096E+01  0.10875236556E+02  0.18703429241E+02  0.51100000000E-03 0.  1.
        -11    1    3    3    0    0  0.38018371425E+01  0.20387344955E+00  0.26599367614E+02  0.26870464971E+02  0.51100000000E-03 0. -1.
        -12    1    3    3    0    0  0.45833290127E+01 -0.45076935795E+00  0.18280029757E+01  0.49549664713E+01  0.00000000000E+00 0.  1.
</event>
<event>
 7    1  0.5972636E-013  0.5052887E+02  0.7816164E-02  0.1300439E+00
        -11   -1    0    0    0    0  0.00000000000E+00  0.00000000000E+00  0.45593999997E+02  0.45594000000E+02  0.51100000000E-03 0. -1.
         11   -1    0    0    0    0 -0.00000000000E+00 -0.00000000000E+00 -0.45593999997E+02  0.45594000000E+02  0.51100000000E-03 0.  1.
    9900012    2    1    2    0    0 -0.32521632851E+02  0.16099818200E+02 -0.18338599693E+02  0.50528868331E+02  0.30000025778E+02 0.  0.
         12    1    1    2    0    0  0.32521632851E+02 -0.16099818200E+02  0.18338599693E+02  0.40659131669E+02  0.00000000000E+00 0. -1.
         11    1    3    3    0    0 -0.41177931226E+01  0.43659657577E+00  0.62059534474E+01  0.74606095745E+01  0.51100000000E-03 0. -1.
        -11    1    3    3    0    0 -0.18587535321E+02  0.22042965887E+01 -0.12389388133E+02  0.22446655238E+02  0.51100000000E-03 0.  1.
         12    1    3    3    0    0 -0.98163044071E+01  0.13458925036E+02 -0.12155165007E+02  0.20621603519E+02  0.00000000000E+00 0. -1.
</event>
<event>
 7    1  0.5972636E-013  0.5052886E+02  0.7816164E-02  0.1300439E+00
        -11   -1    0    0    0    0  0.00000000000E+00  0.00000000000E+00  0.45593999997E+02  0.45594000000E+02  0.51100000000E-03 0. -1.
         11   -1    0    0    0    0 -0.00000000000E+00 -0.00000000000E+00 -0.45593999997E+02  0.45594000000E+02  0.51100000000E-03 0.  1.
    9900012    2    1    2    0    0 -0.30077783677E+02  0.26115754848E+02 -0.81522756420E+01  0.50528864245E+02  0.30000013359E+02 0.  0.
         12    1    1    2    0    0  0.30077783677E+02 -0.26115754848E+02  0.81522756420E+01  0.40659135755E+02  0.00000000000E+00 0. -1.
         11    1    3    3    0    0 -0.28757372390E+02  0.20606303711E+02 -0.50382974248E-01  0.35378083019E+02  0.51100000000E-03 0. -1.
        -11    1    3    3    0    0 -0.51794101069E+01  0.53274957327E+01 -0.16197945740E+01  0.76047507889E+01  0.51100000000E-03 0.  1.
         12    1    3    3    0    0  0.38589988199E+01  0.18195540483E+00 -0.64820980937E+01  0.75460304371E+01  0.00000000000E+00 0. -1.
</event>
<event>
 7    1  0.5972636E-013  0.5052886E+02  0.7816164E-02  0.1300439E+00
        -11   -1    0    0    0    0  0.00000000000E+00  0.00000000000E+00  0.45593999997E+02  0.45594000000E+02  0.51100000000E-03 0.  1.
         11   -1    0    0    0    0 -0.00000000000E+00 -0.00000000000E+00 -0.45593999997E+02  0.45594000000E+02  0.51100000000E-03 0. -1.
    9900012    2    1    2    0    0 -0.16024578019E+02 -0.30751499801E+02  0.21230262741E+02  0.50528857157E+02  0.29999991814E+02 0.  0.
         12    1    1    2    0    0  0.16024578019E+02  0.30751499801E+02 -0.21230262741E+02  0.40659142843E+02  0.00000000000E+00 0. -1.
         11    1    3    3    0    0  0.46056599989E+01 -0.27031379776E+01  0.30893547984E+00  0.53492523163E+01  0.51100000000E-03 0. -1.
        -11    1    3    3    0    0 -0.21665566268E+02 -0.30461965522E+02  0.19052259936E+02  0.41956128446E+02  0.51100000000E-03 0.  1.
        -12    1    3    3    0    0  0.10353282503E+01  0.24136036993E+01  0.18690673251E+01  0.32234763950E+01  0.00000000000E+00 0.  1.
</event>
<event>
 7    1  0.5972636E-013  0.5052887E+02  0.7816164E-02  0.1300439E+00
        -11   -1    0    0    0    0  0.00000000000E+00  0.00000000000E+00  0.45593999997E+02  0.45594000000E+02  0.51100000000E-03 0.  1.
         11   -1    0    0    0    0 -0.00000000000E+00 -0.00000000000E+00 -0.45593999997E+02  0.45594000000E+02  0.51100000000E-03 0. -1.
    9900012    2    1    2    0    0  0.19799025736E+01  0.39264656181E+02  0.10369757994E+02  0.50528866708E+02  0.30000020845E+02 0.  0.
         12    1    1    2    0    0 -0.19799025736E+01 -0.39264656181E+02 -0.10369757994E+02  0.40659133292E+02  0.00000000000E+00 0. -1.
         11    1    3    3    0    0  0.34003465494E+01  0.26175251722E+02  0.10874395435E+02  0.28547480374E+02  0.51100000000E-03 0.  1.
        -11    1    3    3    0    0  0.52829649569E+01 -0.10109680341E+00  0.38729101940E+01  0.65512878834E+01  0.51100000000E-03 0. -1.
         12    1    3    3    0    0 -0.67034089326E+01  0.13190501263E+02 -0.43775476356E+01  0.15430098450E+02  0.00000000000E+00 0. -1.
</event>
<event>
 7    1  0.5972636E-013  0.5052886E+02  0.7816164E-02  0.1300439E+00
        -11   -1    0    0    0    0  0.00000000000E+00  0.00000000000E+00  0.45593999997E+02  0.45594000000E+02  0.51100000000E-03 0.  1.
         11   -1    0    0    0    0 -0.00000000000E+00 -0.00000000000E+00 -0.45593999997E+02  0.45594000000E+02  0.51100000000E-03 0. -1.
    9900012    2    1    2    0    0 -0.24412205498E+02  0.12075837351E+02  0.30189137276E+02  0.50528860382E+02  0.30000001619E+02 0.  0.
         12    1    1    2    0    0  0.24412205498E+02 -0.12075837351E+02 -0.30189137276E+02  0.40659139618E+02  0.00000000000E+00 0. -1.
         11    1    3    3    0    0 -0.75035041263E+00  0.14940826131E+02  0.53294021184E+01  0.15880612029E+02  0.51100000000E-03 0. -1.
        -11    1    3    3    0    0 -0.67774850542E+01  0.74801775922E+00  0.60585860613E+01  0.91214198210E+01  0.51100000000E-03 0.  1.
         12    1    3    3    0    0 -0.16884370031E+02 -0.36130065392E+01  0.18801149096E+02  0.25526828532E+02  0.00000000000E+00 0. -1.
</event>
<event>
 7    1  0.5972636E-013  0.5052883E+02  0.7816164E-02  0.1300439E+00
        -11   -1    0    0    0    0  0.00000000000E+00  0.00000000000E+00  0.45593999997E+02  0.45594000000E+02  0.51100000000E-03 0.  1.
         11   -1    0    0    0    0 -0.00000000000E+00 -0.00000000000E+00 -0.45593999997E+02  0.45594000000E+02  0.51100000000E-03 0. -1.
    9900012    2    1    2    0    0  0.35049426634E+02 -0.99954939508E+01  0.18022084348E+02  0.50528834601E+02  0.29999923252E+02 0.  0.
         12    1    1    2    0    0 -0.35049426634E+02  0.99954939508E+01 -0.18022084348E+02  0.40659165399E+02  0.00000000000E+00 0. -1.
         11    1    3    3    0    0  0.14655839011E+02 -0.56585863501E+01 -0.72330887163E+00  0.15726932078E+02  0.51100000000E-03 0. -1.
        -11    1    3    3    0    0  0.16262621869E+02 -0.35129230801E+01  0.23279022465E+02  0.28613395216E+02  0.51100000000E-03 0.  1.
        -12    1    3    3    0    0  0.41309657547E+01 -0.82398452070E+00 -0.45336292447E+01  0.61885073067E+01  0.00000000000E+00 0.  1.
</event>
<event>
 7    1  0.5972636E-013  0.5052887E+02  0.7816164E-02  0.1300439E+00
        -11   -1    0    0    0    0  0.00000000000E+00  0.00000000000E+00  0.45593999997E+02  0.45594000000E+02  0.51100000000E-03 0.  1.
         11   -1    0    0    0    0 -0.00000000000E+00 -0.00000000000E+00 -0.45593999997E+02  0.45594000000E+02  0.51100000000E-03 0. -1.
    9900012    2    1    2    0    0  0.33357377712E+02  0.20332681952E+02  0.11270850332E+02  0.50528872238E+02  0.30000037654E+02 0.  0.
         12    1    1    2    0    0 -0.33357377712E+02 -0.20332681952E+02 -0.11270850332E+02  0.40659127762E+02  0.00000000000E+00 0. -1.
         11    1    3    3    0    0  0.30972392585E+02  0.83954954991E+01  0.29648255761E+01  0.32226753452E+02  0.51100000000E-03 0. -1.
        -11    1    3    3    0    0  0.38645868194E+01  0.17386074697E+01  0.66194016327E+01  0.78596606450E+01  0.51100000000E-03 0.  1.
         12    1    3    3    0    0 -0.14796016928E+01  0.10198578984E+02  0.16866231230E+01  0.10442458140E+02  0.00000000000E+00 0. -1.
</event>
<event>
 7    1  0.5972636E-013  0.5052885E+02  0.7816164E-02  0.1300439E+00
        -11   -1    0    0    0    0  0.00000000000E+00  0.00000000000E+00  0.45593999997E+02  0.45594000000E+02  0.51100000000E-03 0. -1.
         11   -1    0    0    0    0 -0.00000000000E+00 -0.00000000000E+00 -0.45593999997E+02  0.45594000000E+02  0.51100000000E-03 0.  1.
    9900012    2    1    2    0    0  0.19027128743E+02  0.46166055452E+00 -0.35929394631E+02  0.50528853954E+02  0.29999982077E+02 0.  0.
         12    1    1    2    0    0 -0.19027128743E+02 -0.46166055452E+00  0.35929394631E+02  0.40659146046E+02  0.00000000000E+00 0. -1.
         11    1    3    3    0    0  0.15077826170E+02 -0.96660355166E+01 -0.19489397412E+02  0.26469032781E+02  0.51100000000E-03 0. -1.
        -11    1    3    3    0    0  0.28281130692E+01  0.27821606417E+01 -0.16142945216E+02  0.16623276508E+02  0.51100000000E-03 0.  1.
         12    1    3    3    0    0  0.11211895031E+01  0.73455354295E+01 -0.29705200368E+00  0.74365446641E+01  0.00000000000E+00 0. -1.
</event>
<event>
 7    1  0.5972636E-013  0.5052887E+02  0.7816164E-02  0.1300439E+00
        -11   -1    0    0    0    0  0.00000000000E+00  0.00000000000E+00  0.45593999997E+02  0.45594000000E+02  0.51100000000E-03 0.  1.
         11   -1    0    0    0    0 -0.00000000000E+00 -0.00000000000E+00 -0.45593999997E+02  0.45594000000E+02  0.51100000000E-03 0. -1.
    9900012    2    1    2    0    0  0.27145222581E+02 -0.26184879961E+02  0.15187303502E+02  0.50528865292E+02  0.30000016541E+02 0.  0.
         12    1    1    2    0    0 -0.27145222581E+02  0.26184879961E+02 -0.15187303502E+02  0.40659134708E+02  0.00000000000E+00 0. -1.
         11    1    3    3    0    0  0.24363053794E+02 -0.91588990845E+01  0.39673548580E+01  0.26328382545E+02  0.51100000000E-03 0. -1.
        -11    1    3    3    0    0  0.67829014982E+01 -0.13224224090E+02  0.11317174358E+02  0.18680639476E+02  0.51100000000E-03 0.  1.
         12    1    3    3    0    0 -0.40007327114E+01 -0.38017567864E+01 -0.97225713831E-01  0.55198432705E+01  0.00000000000E+00 0. -1.
</event>
<event>
 7    1  0.5972636E-013  0.5052884E+02  0.7816164E-02  0.1300439E+00
        -11   -1    0    0    0    0  0.00000000000E+00  0.00000000000E+00  0.45593999997E+02  0.45594000000E+02  0.51100000000E-03 0. -1.
         11   -1    0    0    0    0 -0.00000000000E+00 -0.00000000000E+00 -0.45593999997E+02  0.45594000000E+02  0.51100000000E-03 0.  1.
    9900012    2    1    2    0    0  0.19878320297E+02 -0.19264570790E+02 -0.29780800030E+02  0.50528839211E+02  0.29999937267E+02 0.  0.
         12    1    1    2    0    0 -0.19878320297E+02  0.19264570790E+02  0.29780800030E+02  0.40659160789E+02  0.00000000000E+00 0. -1.
         11    1    3    3    0    0  0.38710872717E+01 -0.10008166622E+00 -0.23292457801E+02  0.23612156269E+02  0.51100000000E-03 0. -1.
        -11    1    3    3    0    0  0.13121316077E+02 -0.18964696848E+02 -0.67032847883E+01  0.24015884105E+02  0.51100000000E-03 0.  1.
        -12    1    3    3    0    0  0.28859169486E+01 -0.19979227589E+00  0.21494255936E+00  0.29007988367E+01  0.00000000000E+00 0.  1.
</event>
<event>
 7    1  0.5972636E-013  0.5052887E+02  0.7816164E-02  0.1300439E+00
        -11   -1    0    0    0    0  0.00000000000E+00  0.00000000000E+00  0.45593999997E+02  0.45594000000E+02  0.51100000000E-03 0. -1.
         11   -1    0    0    0    0 -0.00000000000E+00 -0.00000000000E+00 -0.45593999997E+02  0.45594000000E+02  0.51100000000E-03 0.  1.
    9900012    2    1    2    0    0  0.35310056009E+02  0.19546135901E+02  0.49308623467E+01  0.50528869568E+02  0.30000029538E+02 0.  0.
         12    1    1    2    0    0 -0.35310056009E+02 -0.19546135901E+02 -0.49308623467E+01  0.40659130432E+02  0.00000000000E+00 0. -1.
         11    1    3    3    0    0  0.26456497562E+02  0.12238243793E+02 -0.89907250329E+01  0.30504983384E+02  0.51100000000E-03 0. -1.
        -11    1    3    3    0    0  0.87043092730E+01  0.63003735314E+01  0.65541191235E+01  0.12586349125E+02  0.51100000000E-03 0.  1.
         12    1    3    3    0    0  0.14924917436E+00  0.10075185773E+01  0.73674682561E+01  0.74375370590E+01  0.00000000000E+00 0. -1.
</event>
<event>
 7    1  0.5972636E-013  0.5052886E+02  0.7816164E-02  0.1300439E+00
        -11   -1    0    0    0    0  0.00000000000E+00  0.00000000000E+00  0.45593999997E+02  0.45594000000E+02  0.51100000000E-03 0.  1.
         11   -1    0    0    0    0 -0.00000000000E+00 -0.00000000000E+00 -0.45593999997E+02  0.45594000000E+02  0.51100000000E-03 0. -1.
    9900012    2    1    2    0    0  0.27106840018E+02  0.15503417320E+02  0.26038993891E+02  0.50528856782E+02  0.29999990675E+02 0.  0.
         12    1    1    2    0    0 -0.27106840018E+02 -0.15503417320E+02 -0.26038993891E+02  0.40659143218E+02  0.00000000000E+00 0. -1.
         11    1    3    3    0    0  0.14148303440E+02  0.10999003795E+02 -0.11607150018E+01  0.17958280382E+02  0.51100000000E-03 0. -1.
        -11    1    3    3    0    0  0.12198550521E+02  0.78178579273E+01  0.22728093932E+02  0.26953474571E+02  0.51100000000E-03 0.  1.
        -12    1    3    3    0    0  0.75998605797E+00 -0.33134444020E+01  0.44716149602E+01  0.56171018297E+01  0.00000000000E+00 0.  1.
</event>
<event>
 7    1  0.5972636E-013  0.5052876E+02  0.7816164E-02  0.1300439E+00
        -11   -1    0    0    0    0  0.00000000000E+00  0.00000000000E+00  0.45593999997E+02  0.45594000000E+02  0.51100000000E-03 0.  1.
         11   -1    0    0    0    0 -0.00000000000E+00 -0.00000000000E+00 -0.45593999997E+02  0.45594000000E+02  0.51100000000E-03 0. -1.
    9900012    2    1    2    0    0 -0.13583336010E+01 -0.78865052078E+01  0.39863918118E+02  0.50528757480E+02  0.29999688835E+02 0.  0.
         12    1    1    2    0    0  0.13583336010E+01  0.78865052078E+01 -0.39863918118E+02  0.40659242520E+02  0.00000000000E+00 0. -1.
         11    1    3    3    0    0  0.17884714156E+01  0.16007950225E+01 -0.28112451403E+01  0.36965219069E+01  0.51100000000E-03 0. -1.
        -11    1    3    3    0    0 -0.96409892650E+01 -0.71254834452E+01  0.22316206143E+02  0.25332474123E+02  0.51100000000E-03 0.  1.
        -12    1    3    3    0    0  0.64941842484E+01 -0.23618167850E+01  0.20358957115E+02  0.21499761450E+02  0.00000000000E+00 0.  1.
</event>
<event>
 7    1  0.5972636E-013  0.5052886E+02  0.7816164E-02  0.1300439E+00
        -11   -1    0    0    0    0  0.00000000000E+00  0.00000000000E+00  0.45593999997E+02  0.45594000000E+02  0.51100000000E-03 0.  1.
         11   -1    0    0    0    0 -0.00000000000E+00 -0.00000000000E+00 -0.45593999997E+02  0.45594000000E+02  0.51100000000E-03 0. -1.
    9900012    2    1    2    0    0  0.29850588072E+02  0.66283538416E+01  0.26798752105E+02  0.50528858380E+02  0.29999995533E+02 0.  0.
         12    1    1    2    0    0 -0.29850588072E+02 -0.66283538416E+01 -0.26798752105E+02  0.40659141620E+02  0.00000000000E+00 0. -1.
         11    1    3    3    0    0  0.20750673082E+01  0.12617954273E+02  0.26351565919E+01  0.13056137441E+02  0.51100000000E-03 0. -1.
        -11    1    3    3    0    0  0.20690974411E+02 -0.60459755834E+01  0.18265306187E+02  0.28254055518E+02  0.51100000000E-03 0.  1.
         12    1    3    3    0    0  0.70845463525E+01  0.56375152486E-01  0.58982893260E+01  0.92186654214E+01  0.00000000000E+00 0. -1.
</event>
<event>
 7    1  0.5972636E-013  0.5052881E+02  0.7816164E-02  0.1300439E+00
        -11   -1    0    0    0    0  0.00000000000E+00  0.00000000000E+00  0.45593999997E+02  0.45594000000E+02  0.51100000000E-03 0. -1.
         11   -1    0    0    0    0 -0.00000000000E+00 -0.00000000000E+00 -0.45593999997E+02  0.45594000000E+02  0.51100000000E-03 0.  1.
    9900012    2    1    2    0    0  0.34415527010E+02  0.16968415845E+02 -0.13446701377E+02  0.50528813909E+02  0.29999860357E+02 0.  0.
         12    1    1    2    0    0 -0.34415527010E+02 -0.16968415845E+02  0.13446701377E+02  0.40659186091E+02  0.00000000000E+00 0. -1.
         11    1    3    3    0    0  0.74679058366E+01  0.17462507848E+01 -0.17285081199E+02  0.18910130664E+02  0.51100000000E-03 0. -1.
        -11    1    3    3    0    0  0.14197061105E+02  0.50470817203E+01  0.15759959646E+01  0.15149697734E+02  0.51100000000E-03 0.  1.
         12    1    3    3    0    0  0.12750560069E+02  0.10175083339E+02  0.22623838577E+01  0.16468985511E+02  0.00000000000E+00 0. -1.
</event>
<event>
 7    1  0.5972636E-013  0.5052886E+02  0.7816164E-02  0.1300439E+00
        -11   -1    0    0    0    0  0.00000000000E+00  0.00000000000E+00  0.45593999997E+02  0.45594000000E+02  0.51100000000E-03 0.  1.
         11   -1    0    0    0    0 -0.00000000000E+00 -0.00000000000E+00 -0.45593999997E+02  0.45594000000E+02  0.51100000000E-03 0. -1.
    9900012    2    1    2    0    0  0.36536443229E+02  0.69719530196E+01 -0.16420892035E+02  0.50528861938E+02  0.30000006348E+02 0.  0.
         12    1    1    2    0    0 -0.36536443229E+02 -0.69719530196E+01  0.16420892035E+02  0.40659138062E+02  0.00000000000E+00 0. -1.
         11    1    3    3    0    0  0.20647976434E+02  0.64579945735E+01 -0.23017997712E+02  0.31589125402E+02  0.51100000000E-03 0. -1.
        -11    1    3    3    0    0  0.24627417849E+01 -0.24948802922E+01 -0.35636298852E+00  0.35237082190E+01  0.51100000000E-03 0.  1.
         12    1    3    3    0    0  0.13425725009E+02  0.30088387383E+01  0.69534686661E+01  0.15416028317E+02  0.00000000000E+00 0. -1.
</event>
<event>
 7    1  0.5972636E-013  0.5052885E+02  0.7816164E-02  0.1300439E+00
        -11   -1    0    0    0    0  0.00000000000E+00  0.00000000000E+00  0.45593999997E+02  0.45594000000E+02  0.51100000000E-03 0.  1.
         11   -1    0    0    0    0 -0.00000000000E+00 -0.00000000000E+00 -0.45593999997E+02  0.45594000000E+02  0.51100000000E-03 0. -1.
    9900012    2    1    2    0    0 -0.19271837087E+02 -0.22530954885E+02  0.27822996031E+02  0.50528846777E+02  0.29999960262E+02 0.  0.
         12    1    1    2    0    0  0.19271837087E+02  0.22530954885E+02 -0.27822996031E+02  0.40659153223E+02  0.00000000000E+00 0. -1.
         11    1    3    3    0    0 -0.26358948486E+01 -0.21235576302E+02  0.84879332752E+01  0.23020483358E+02  0.51100000000E-03 0. -1.
        -11    1    3    3    0    0 -0.17361614197E+02 -0.94352303037E+00  0.19972423613E+02  0.26480437845E+02  0.51100000000E-03 0.  1.
        -12    1    3    3    0    0  0.72567195853E+00 -0.35185555281E+00 -0.63736085739E+00  0.10279255732E+01  0.00000000000E+00 0.  1.
</event>
<event>
 7    1  0.5972636E-013  0.5052886E+02  0.7816164E-02  0.1300439E+00
        -11   -1    0    0    0    0  0.00000000000E+00  0.00000000000E+00  0.45593999997E+02  0.45594000000E+02  0.51100000000E-03 0.  1.
         11   -1    0    0    0    0 -0.00000000000E+00 -0.00000000000E+00 -0.45593999997E+02  0.45594000000E+02  0.51100000000E-03 0. -1.
    9900012    2    1    2    0    0  0.82547821752E+01  0.70743447406E+01  0.39178795355E+02  0.50528858498E+02  0.29999995889E+02 0.  0.
         12    1    1    2    0    0 -0.82547821752E+01 -0.70743447406E+01 -0.39178795355E+02  0.40659141502E+02  0.00000000000E+00 0. -1.
         11    1    3    3    0    0 -0.74913372550E+01  0.46122607832E+00  0.26059390374E+01  0.79450476330E+01  0.51100000000E-03 0. -1.
        -11    1    3    3    0    0  0.99310479256E+01  0.89144828609E+01  0.14789151181E+02  0.19920158395E+02  0.51100000000E-03 0.  1.
         12    1    3    3    0    0  0.58150715046E+01 -0.23013641986E+01  0.21783705137E+02  0.22663652470E+02  0.00000000000E+00 0. -1.
</event>
<event>
 7    1  0.5972636E-013  0.5052886E+02  0.7816164E-02  0.1300439E+00
        -11   -1    0    0    0    0  0.00000000000E+00  0.00000000000E+00  0.45593999997E+02  0.45594000000E+02  0.51100000000E-03 0.  1.
         11   -1    0    0    0    0 -0.00000000000E+00 -0.00000000000E+00 -0.45593999997E+02  0.45594000000E+02  0.51100000000E-03 0. -1.
    9900012    2    1    2    0    0 -0.22725287677E+01 -0.39732306743E+02  0.83273754098E+01  0.50528858749E+02  0.29999996652E+02 0.  0.
         12    1    1    2    0    0  0.22725287677E+01  0.39732306743E+02 -0.83273754098E+01  0.40659141251E+02  0.00000000000E+00 0. -1.
         11    1    3    3    0    0 -0.11108986481E+01 -0.89995373533E+00 -0.47043878173E+01  0.49168361299E+01  0.51100000000E-03 0. -1.
        -11    1    3    3    0    0 -0.22098815862E+01 -0.41127144127E+02  0.12193967099E+02  0.42953677311E+02  0.51100000000E-03 0.  1.
         12    1    3    3    0    0  0.10482514666E+01  0.22947911199E+01  0.83779612837E+00  0.26583453075E+01  0.00000000000E+00 0. -1.
</event>
<event>
 7    1  0.5972636E-013  0.5052886E+02  0.7816164E-02  0.1300439E+00
        -11   -1    0    0    0    0  0.00000000000E+00  0.00000000000E+00  0.45593999997E+02  0.45594000000E+02  0.51100000000E-03 0.  1.
         11   -1    0    0    0    0 -0.00000000000E+00 -0.00000000000E+00 -0.45593999997E+02  0.45594000000E+02  0.51100000000E-03 0. -1.
    9900012    2    1    2    0    0  0.30862056140E+02 -0.26356918339E+02 -0.24519902163E+01  0.50528856999E+02  0.29999991334E+02 0.  0.
         12    1    1    2    0    0 -0.30862056140E+02  0.26356918339E+02  0.24519902163E+01  0.40659143001E+02  0.00000000000E+00 0. -1.
         11    1    3    3    0    0  0.23543889111E+01  0.52743297925E+01 -0.52918023637E+01  0.78335735410E+01  0.51100000000E-03 0. -1.
        -11    1    3    3    0    0  0.12868933163E+02 -0.15062266979E+02  0.96934730481E+00  0.19834842116E+02  0.51100000000E-03 0.  1.
         12    1    3    3    0    0  0.15638734066E+02 -0.16568981153E+02  0.18704648426E+01  0.22860441342E+02  0.00000000000E+00 0. -1.
</event>
<event>
 7    1  0.5972636E-013  0.5052886E+02  0.7816164E-02  0.1300439E+00
        -11   -1    0    0    0    0  0.00000000000E+00  0.00000000000E+00  0.45593999997E+02  0.45594000000E+02  0.51100000000E-03 0. -1.
         11   -1    0    0    0    0 -0.00000000000E+00 -0.00000000000E+00 -0.45593999997E+02  0.45594000000E+02  0.51100000000E-03 0.  1.
    9900012    2    1    2    0    0  0.55847405773E+01 -0.27276494304E+02 -0.29630548930E+02  0.50528857133E+02  0.29999991740E+02 0.  0.
         12    1    1    2    0    0 -0.55847405773E+01  0.27276494304E+02  0.29630548930E+02  0.40659142867E+02  0.00000000000E+00 0. -1.
         11    1    3    3    0    0 -0.87752133729E+01 -0.66989121667E+01 -0.78510189150E+01  0.13546892346E+02  0.51100000000E-03 0. -1.
        -11    1    3    3    0    0  0.96671592357E+01 -0.22722491916E+02 -0.18677896645E+02  0.30961741390E+02  0.51100000000E-03 0.  1.
         12    1    3    3    0    0  0.46927947145E+01  0.21449097786E+01 -0.31016333696E+01  0.60202233970E+01  0.00000000000E+00 0. -1.
</event>
<event>
 7    1  0.5972636E-013  0.5052886E+02  0.7816164E-02  0.1300439E+00
        -11   -1    0    0    0    0  0.00000000000E+00  0.00000000000E+00  0.45593999997E+02  0.45594000000E+02  0.51100000000E-03 0.  1.
         11   -1    0    0    0    0 -0.00000000000E+00 -0.00000000000E+00 -0.45593999997E+02  0.45594000000E+02  0.51100000000E-03 0. -1.
    9900012    2    1    2    0    0  0.49583547520E+01  0.33444757858E+02  0.22583804196E+02  0.50528864225E+02  0.30000013299E+02 0.  0.
         12    1    1    2    0    0 -0.49583547520E+01 -0.33444757858E+02 -0.22583804196E+02  0.40659135775E+02  0.00000000000E+00 0. -1.
         11    1    3    3    0    0  0.62138561443E+01  0.21849824180E+02  0.24765002096E+02  0.33605537550E+02  0.51100000000E-03 0. -1.
        -11    1    3    3    0    0  0.32289844703E+01  0.11814183804E+02 -0.21414672708E+01  0.12433308570E+02  0.51100000000E-03 0.  1.
         12    1    3    3    0    0 -0.44844858626E+01 -0.21925012620E+00 -0.39730630220E-01  0.44900181060E+01  0.00000000000E+00 0. -1.
</event>
<event>
 7    1  0.5972636E-013  0.5052883E+02  0.7816164E-02  0.1300439E+00
        -11   -1    0    0    0    0  0.00000000000E+00  0.00000000000E+00  0.45593999997E+02  0.45594000000E+02  0.51100000000E-03 0. -1.
         11   -1    0    0    0    0 -0.00000000000E+00 -0.00000000000E+00 -0.45593999997E+02  0.45594000000E+02  0.51100000000E-03 0.  1.
    9900012    2    1    2    0    0 -0.21899000232E+02  0.33543678317E+02 -0.69586857981E+01  0.50528832839E+02  0.29999917898E+02 0.  0.
         12    1    1    2    0    0  0.21899000232E+02 -0.33543678317E+02  0.69586857981E+01  0.40659167161E+02  0.00000000000E+00 0. -1.
         11    1    3    3    0    0  0.15043221766E+01  0.18849932691E+02  0.14547132043E+01  0.18965735906E+02  0.51100000000E-03 0. -1.
        -11    1    3    3    0    0 -0.15446391203E+02  0.16088022312E+02 -0.68874120554E+01  0.23342063066E+02  0.51100000000E-03 0.  1.
         12    1    3    3    0    0 -0.79569312053E+01 -0.13942766863E+01 -0.15259869470E+01  0.82210338673E+01  0.00000000000E+00 0. -1.
</event>
<event>
 7    1  0.5972636E-013  0.5052885E+02  0.7816164E-02  0.1300439E+00
        -11   -1    0    0    0    0  0.00000000000E+00  0.00000000000E+00  0.45593999997E+02  0.45594000000E+02  0.51100000000E-03 0. -1.
         11   -1    0    0    0    0 -0.00000000000E+00 -0.00000000000E+00 -0.45593999997E+02  0.45594000000E+02  0.51100000000E-03 0.  1.
    9900012    2    1    2    0    0  0.22501306624E+02  0.32006603685E+02  0.11065038533E+02  0.50528849038E+02  0.29999967136E+02 0.  0.
         12    1    1    2    0    0 -0.22501306624E+02 -0.32006603685E+02 -0.11065038533E+02  0.40659150962E+02  0.00000000000E+00 0. -1.
         11    1    3    3    0    0  0.27536196098E+01  0.27559860817E+02  0.34539965814E+01  0.27911618403E+02  0.51100000000E-03 0. -1.
        -11    1    3    3    0    0  0.80653394575E+01  0.38220001707E+01  0.52717333248E+00  0.89406542184E+01  0.51100000000E-03 0.  1.
         12    1    3    3    0    0  0.11682347556E+02  0.62474269702E+00  0.70838686191E+01  0.13676576416E+02  0.00000000000E+00 0. -1.
</event>
<event>
 7    1  0.5972636E-013  0.5052887E+02  0.7816164E-02  0.1300439E+00
        -11   -1    0    0    0    0  0.00000000000E+00  0.00000000000E+00  0.45593999997E+02  0.45594000000E+02  0.51100000000E-03 0. -1.
         11   -1    0    0    0    0 -0.00000000000E+00 -0.00000000000E+00 -0.45593999997E+02  0.45594000000E+02  0.51100000000E-03 0.  1.
    9900012    2    1    2    0    0 -0.24110757505E+02 -0.32644885026E+02 -0.24794856391E+01  0.50528868248E+02  0.30000025526E+02 0.  0.
         12    1    1    2    0    0  0.24110757505E+02  0.32644885026E+02  0.24794856391E+01  0.40659131752E+02  0.00000000000E+00 0. -1.
         11    1    3    3    0    0 -0.19652872615E+02 -0.86241891823E+01  0.57173696174E+01  0.22210365974E+02  0.51100000000E-03 0. -1.
        -11    1    3    3    0    0 -0.33026373172E+01 -0.16299385279E+02  0.49129294974E+00  0.16637870740E+02  0.51100000000E-03 0.  1.
         12    1    3    3    0    0 -0.11552475724E+01 -0.77213105645E+01 -0.86881482062E+01  0.11680631534E+02  0.00000000000E+00 0. -1.
</event>
<event>
 7    1  0.5972636E-013  0.5052888E+02  0.7816164E-02  0.1300439E+00
        -11   -1    0    0    0    0  0.00000000000E+00  0.00000000000E+00  0.45593999997E+02  0.45594000000E+02  0.51100000000E-03 0. -1.
         11   -1    0    0    0    0 -0.00000000000E+00 -0.00000000000E+00 -0.45593999997E+02  0.45594000000E+02  0.51100000000E-03 0.  1.
    9900012    2    1    2    0    0 -0.33976004127E+02  0.31129030120E+01 -0.22115725663E+02  0.50528876261E+02  0.30000049884E+02 0.  0.
         12    1    1    2    0    0  0.33976004127E+02 -0.31129030120E+01  0.22115725663E+02  0.40659123739E+02  0.00000000000E+00 0. -1.
         11    1    3    3    0    0 -0.63364253239E+01 -0.78166550117E+01 -0.12174425620E+02  0.15794525029E+02  0.51100000000E-03 0. -1.
        -11    1    3    3    0    0 -0.14466738735E+02  0.11245064487E+02 -0.11236687342E+02  0.21494211957E+02  0.51100000000E-03 0.  1.
        -12    1    3    3    0    0 -0.13172840068E+02 -0.31550646346E+00  0.12953872996E+01  0.13240139276E+02  0.00000000000E+00 0.  1.
</event>
<event>
 7    1  0.5972636E-013  0.5052886E+02  0.7816164E-02  0.1300439E+00
        -11   -1    0    0    0    0  0.00000000000E+00  0.00000000000E+00  0.45593999997E+02  0.45594000000E+02  0.51100000000E-03 0. -1.
         11   -1    0    0    0    0 -0.00000000000E+00 -0.00000000000E+00 -0.45593999997E+02  0.45594000000E+02  0.51100000000E-03 0.  1.
    9900012    2    1    2    0    0 -0.19587941440E+02 -0.34995135646E+02  0.66946738236E+01  0.50528860482E+02  0.30000001921E+02 0.  0.
         12    1    1    2    0    0  0.19587941440E+02  0.34995135646E+02 -0.66946738236E+01  0.40659139518E+02  0.00000000000E+00 0. -1.
         11    1    3    3    0    0 -0.44571138712E+01 -0.14225420819E+02 -0.11314365783E+02  0.18714789202E+02  0.51100000000E-03 0. -1.
        -11    1    3    3    0    0 -0.10678915146E+02 -0.17046051746E+02  0.11825578479E+02  0.23333482712E+02  0.51100000000E-03 0.  1.
         12    1    3    3    0    0 -0.44519124229E+01 -0.37236630811E+01  0.61834611272E+01  0.84805885689E+01  0.00000000000E+00 0. -1.
</event>
<event>
 7    1  0.5972636E-013  0.5052887E+02  0.7816164E-02  0.1300439E+00
        -11   -1    0    0    0    0  0.00000000000E+00  0.00000000000E+00  0.45593999997E+02  0.45594000000E+02  0.51100000000E-03 0. -1.
         11   -1    0    0    0    0 -0.00000000000E+00 -0.00000000000E+00 -0.45593999997E+02  0.45594000000E+02  0.51100000000E-03 0.  1.
    9900012    2    1    2    0    0 -0.78879014573E+01 -0.39097527207E+02 -0.78949067456E+01  0.50528866025E+02  0.30000018769E+02 0.  0.
         12    1    1    2    0    0  0.78879014573E+01  0.39097527207E+02  0.78949067456E+01  0.40659133975E+02  0.00000000000E+00 0. -1.
         11    1    3    3    0    0 -0.69425760732E+01 -0.78282514100E+01  0.59765128547E+01  0.12049879204E+02  0.51100000000E-03 0. -1.
        -11    1    3    3    0    0 -0.91593857761E+01 -0.19414680769E+02 -0.85252961855E+01  0.23097723967E+02  0.51100000000E-03 0.  1.
         12    1    3    3    0    0  0.82140603920E+01 -0.11854595028E+02 -0.53461234149E+01  0.15381262853E+02  0.00000000000E+00 0. -1.
</event>
<event>
 7    1  0.5972636E-013  0.5052885E+02  0.7816164E-02  0.1300439E+00
        -11   -1    0    0    0    0  0.00000000000E+00  0.00000000000E+00  0.45593999997E+02  0.45594000000E+02  0.51100000000E-03 0.  1.
         11   -1    0    0    0    0 -0.00000000000E+00 -0.00000000000E+00 -0.45593999997E+02  0.45594000000E+02  0.51100000000E-03 0. -1.
    9900012    2    1    2    0    0 -0.14257263124E+02  0.32201827301E+02  0.20320910114E+02  0.50528848248E+02  0.29999964735E+02 0.  0.
         12    1    1    2    0    0  0.14257263124E+02 -0.32201827301E+02 -0.20320910114E+02  0.40659151752E+02  0.00000000000E+00 0. -1.
         11    1    3    3    0    0 -0.13874940389E+02  0.21493065131E+02  0.13231628136E+01  0.25616724607E+02  0.51100000000E-03 0. -1.
        -11    1    3    3    0    0 -0.29008837675E+01  0.34429621355E+01  0.16061718743E+02  0.16680765095E+02  0.51100000000E-03 0.  1.
        -12    1    3    3    0    0  0.25185610326E+01  0.72658000351E+01  0.29360285567E+01  0.82313585459E+01  0.00000000000E+00 0.  1.
</event>
<event>
 7    1  0.5972636E-013  0.5052886E+02  0.7816164E-02  0.1300439E+00
        -11   -1    0    0    0    0  0.00000000000E+00  0.00000000000E+00  0.45593999997E+02  0.45594000000E+02  0.51100000000E-03 0. -1.
         11   -1    0    0    0    0 -0.00000000000E+00 -0.00000000000E+00 -0.45593999997E+02  0.45594000000E+02  0.51100000000E-03 0.  1.
    9900012    2    1    2    0    0 -0.29067627450E+02 -0.28209256387E+02 -0.35321788717E+01  0.50528863277E+02  0.30000010417E+02 0.  0.
         12    1    1    2    0    0  0.29067627450E+02  0.28209256387E+02  0.35321788717E+01  0.40659136723E+02  0.00000000000E+00 0. -1.
         11    1    3    3    0    0 -0.12162885649E+02 -0.16501762406E+02  0.37018390450E+01  0.20831408075E+02  0.51100000000E-03 0. -1.
        -11    1    3    3    0    0 -0.13269349240E+02 -0.98161540496E+01 -0.14095624022E+02  0.21705278768E+02  0.51100000000E-03 0.  1.
        -12    1    3    3    0    0 -0.36353925615E+01 -0.18913399319E+01  0.68616061053E+01  0.79921764344E+01  0.00000000000E+00 0.  1.
</event>
<event>
 7    1  0.5972636E-013  0.5052885E+02  0.7816164E-02  0.1300439E+00
        -11   -1    0    0    0    0  0.00000000000E+00  0.00000000000E+00  0.45593999997E+02  0.45594000000E+02  0.51100000000E-03 0.  1.
         11   -1    0    0    0    0 -0.00000000000E+00 -0.00000000000E+00 -0.45593999997E+02  0.45594000000E+02  0.51100000000E-03 0. -1.
    9900012    2    1    2    0    0  0.30714645887E+01  0.34625516155E+02  0.21090430278E+02  0.50528849578E+02  0.29999968778E+02 0.  0.
         12    1    1    2    0    0 -0.30714645887E+01 -0.34625516155E+02 -0.21090430278E+02  0.40659150422E+02  0.00000000000E+00 0. -1.
         11    1    3    3    0    0 -0.15156997613E+01  0.57784441128E+01 -0.58012193200E+01  0.83271788735E+01  0.51100000000E-03 0. -1.
        -11    1    3    3    0    0  0.77550351912E+01  0.26833367779E+02  0.26368226961E+02  0.38411633530E+02  0.51100000000E-03 0.  1.
        -12    1    3    3    0    0 -0.31678708411E+01  0.20137042637E+01  0.52342263720E+00  0.37900371746E+01  0.00000000000E+00 0.  1.
</event>
<event>
 7    1  0.5972636E-013  0.5052887E+02  0.7816164E-02  0.1300439E+00
        -11   -1    0    0    0    0  0.00000000000E+00  0.00000000000E+00  0.45593999997E+02  0.45594000000E+02  0.51100000000E-03 0.  1.
         11   -1    0    0    0    0 -0.00000000000E+00 -0.00000000000E+00 -0.45593999997E+02  0.45594000000E+02  0.51100000000E-03 0. -1.
    9900012    2    1    2    0    0  0.28891588683E+02  0.21547165001E+01 -0.28527145216E+02  0.50528871702E+02  0.30000036025E+02 0.  0.
         12    1    1    2    0    0 -0.28891588683E+02 -0.21547165001E+01  0.28527145216E+02  0.40659128298E+02  0.00000000000E+00 0. -1.
         11    1    3    3    0    0  0.11432322081E+02 -0.69132503199E+01 -0.20766637176E+02  0.24692999778E+02  0.51100000000E-03 0. -1.
        -11    1    3    3    0    0  0.10189255432E+02  0.73640036715E+01  0.28215964793E+01  0.12884521073E+02  0.51100000000E-03 0.  1.
         12    1    3    3    0    0  0.72700111706E+01  0.17039631485E+01 -0.10582104519E+02  0.12951350851E+02  0.00000000000E+00 0. -1.
</event>
<event>
 7    1  0.5972636E-013  0.5052886E+02  0.7816164E-02  0.1300439E+00
        -11   -1    0    0    0    0  0.00000000000E+00  0.00000000000E+00  0.45593999997E+02  0.45594000000E+02  0.51100000000E-03 0. -1.
         11   -1    0    0    0    0 -0.00000000000E+00 -0.00000000000E+00 -0.45593999997E+02  0.45594000000E+02  0.51100000000E-03 0.  1.
    9900012    2    1    2    0    0 -0.11664622744E+02  0.21875980285E+02 -0.32226440447E+02  0.50528863252E+02  0.30000010342E+02 0.  0.
         12    1    1    2    0    0  0.11664622744E+02 -0.21875980285E+02  0.32226440447E+02  0.40659136748E+02  0.00000000000E+00 0. -1.
         11    1    3    3    0    0  0.48188865708E+01  0.32353808727E+01 -0.10744336277E+02  0.12211884353E+02  0.51100000000E-03 0. -1.
        -11    1    3    3    0    0 -0.20092224117E+02  0.19357271832E+02 -0.20102340473E+02  0.34387578215E+02  0.51100000000E-03 0.  1.
        -12    1    3    3    0    0  0.36087148020E+01 -0.71667241908E+00 -0.13797636970E+01  0.39294006843E+01  0.00000000000E+00 0.  1.
</event>
<event>
 7    1  0.5972636E-013  0.5052885E+02  0.7816164E-02  0.1300439E+00
        -11   -1    0    0    0    0  0.00000000000E+00  0.00000000000E+00  0.45593999997E+02  0.45594000000E+02  0.51100000000E-03 0. -1.
         11   -1    0    0    0    0 -0.00000000000E+00 -0.00000000000E+00 -0.45593999997E+02  0.45594000000E+02  0.51100000000E-03 0.  1.
    9900012    2    1    2    0    0  0.31691587065E+02  0.25254730813E+02 -0.33178511137E+01  0.50528852750E+02  0.29999978418E+02 0.  0.
         12    1    1    2    0    0 -0.31691587065E+02 -0.25254730813E+02  0.33178511137E+01  0.40659147250E+02  0.00000000000E+00 0. -1.
         11    1    3    3    0    0  0.12390241363E+02  0.79820677630E+01 -0.14841065601E+02  0.20916230904E+02  0.51100000000E-03 0. -1.
        -11    1    3    3    0    0  0.61642195206E+01  0.36162579142E+01 -0.51083938308E+00  0.71649061918E+01  0.51100000000E-03 0.  1.
         12    1    3    3    0    0  0.13137126181E+02  0.13656405135E+02  0.12034053870E+02  0.22447715654E+02  0.00000000000E+00 0. -1.
</event>
<event>
 7    1  0.5972636E-013  0.5052886E+02  0.7816164E-02  0.1300439E+00
        -11   -1    0    0    0    0  0.00000000000E+00  0.00000000000E+00  0.45593999997E+02  0.45594000000E+02  0.51100000000E-03 0.  1.
         11   -1    0    0    0    0 -0.00000000000E+00 -0.00000000000E+00 -0.45593999997E+02  0.45594000000E+02  0.51100000000E-03 0. -1.
    9900012    2    1    2    0    0  0.40211005239E+01  0.29143151593E+02  0.28065516086E+02  0.50528859240E+02  0.29999998145E+02 0.  0.
         12    1    1    2    0    0 -0.40211005239E+01 -0.29143151593E+02 -0.28065516086E+02  0.40659140760E+02  0.00000000000E+00 0. -1.
         11    1    3    3    0    0  0.62414792909E+01  0.14304934783E+02  0.24963620004E+02  0.29440950169E+02  0.51100000000E-03 0. -1.
        -11    1    3    3    0    0 -0.11391836562E+01  0.47410943372E+00 -0.45935957300E+01  0.47564315563E+01  0.51100000000E-03 0.  1.
        -12    1    3    3    0    0 -0.10811951108E+01  0.14364107376E+02  0.76954918119E+01  0.16331477514E+02  0.00000000000E+00 0.  1.
</event>
<event>
 7    1  0.5972636E-013  0.5052887E+02  0.7816164E-02  0.1300439E+00
        -11   -1    0    0    0    0  0.00000000000E+00  0.00000000000E+00  0.45593999997E+02  0.45594000000E+02  0.51100000000E-03 0.  1.
         11   -1    0    0    0    0 -0.00000000000E+00 -0.00000000000E+00 -0.45593999997E+02  0.45594000000E+02  0.51100000000E-03 0. -1.
    9900012    2    1    2    0    0 -0.34563103485E+02 -0.19441729701E+02  0.89764262250E+01  0.50528865675E+02  0.30000017705E+02 0.  0.
         12    1    1    2    0    0  0.34563103485E+02  0.19441729701E+02 -0.89764262250E+01  0.40659134325E+02  0.00000000000E+00 0. -1.
         11    1    3    3    0    0 -0.27801925348E+00 -0.13366562614E+02 -0.29438603069E+00  0.13372694352E+02  0.51100000000E-03 0. -1.
        -11    1    3    3    0    0 -0.44063775270E+01  0.22294238711E+01  0.74461202570E+00  0.49940906117E+01  0.51100000000E-03 0.  1.
         12    1    3    3    0    0 -0.29878706705E+02 -0.83045909578E+01  0.85262002300E+01  0.32162080711E+02  0.00000000000E+00 0. -1.
</event>
<event>
 7    1  0.5972636E-013  0.5052885E+02  0.7816164E-02  0.1300439E+00
        -11   -1    0    0    0    0  0.00000000000E+00  0.00000000000E+00  0.45593999997E+02  0.45594000000E+02  0.51100000000E-03 0.  1.
         11   -1    0    0    0    0 -0.00000000000E+00 -0.00000000000E+00 -0.45593999997E+02  0.45594000000E+02  0.51100000000E-03 0. -1.
    9900012    2    1    2    0    0  0.77783066089E+01  0.14429339973E+02  0.37208315262E+02  0.50528848135E+02  0.29999964390E+02 0.  0.
         12    1    1    2    0    0 -0.77783066089E+01 -0.14429339973E+02 -0.37208315262E+02  0.40659151865E+02  0.00000000000E+00 0. -1.
         11    1    3    3    0    0  0.67869010697E+01  0.16110739794E+01  0.19380123114E+01  0.72397152898E+01  0.51100000000E-03 0. -1.
        -11    1    3    3    0    0 -0.34397162458E+01 -0.45889866463E+01  0.15751644115E+02  0.16763195963E+02  0.51100000000E-03 0.  1.
        -12    1    3    3    0    0  0.44311217850E+01  0.17407252640E+02  0.19518658835E+02  0.26525936882E+02  0.00000000000E+00 0.  1.
</event>
<event>
 7    1  0.5972636E-013  0.5052887E+02  0.7816164E-02  0.1300439E+00
        -11   -1    0    0    0    0  0.00000000000E+00  0.00000000000E+00  0.45593999997E+02  0.45594000000E+02  0.51100000000E-03 0. -1.
         11   -1    0    0    0    0 -0.00000000000E+00 -0.00000000000E+00 -0.45593999997E+02  0.45594000000E+02  0.51100000000E-03 0.  1.
    9900012    2    1    2    0    0 -0.42490568193E+01  0.40427585001E+02 -0.84904779039E+00  0.50528868246E+02  0.30000025520E+02 0.  0.
         12    1    1    2    0    0  0.42490568193E+01 -0.40427585001E+02  0.84904779039E+00  0.40659131754E+02  0.00000000000E+00 0. -1.
         11    1    3    3    0    0 -0.36925901689E+01  0.32456964301E+02  0.77795338027E+01  0.33579918109E+02  0.51100000000E-03 0. -1.
        -11    1    3    3    0    0  0.42177486934E+01 -0.71712334663E+00 -0.45038105636E+01  0.62119223907E+01  0.51100000000E-03 0.  1.
        -12    1    3    3    0    0 -0.47742153438E+01  0.86877440469E+01 -0.41247710295E+01  0.10737027746E+02  0.00000000000E+00 0.  1.
</event>
<event>
 7    1  0.5972636E-013  0.5052886E+02  0.7816164E-02  0.1300439E+00
        -11   -1    0    0    0    0  0.00000000000E+00  0.00000000000E+00  0.45593999997E+02  0.45594000000E+02  0.51100000000E-03 0.  1.
         11   -1    0    0    0    0 -0.00000000000E+00 -0.00000000000E+00 -0.45593999997E+02  0.45594000000E+02  0.51100000000E-03 0. -1.
    9900012    2    1    2    0    0  0.51970574388E+01 -0.14501652187E+02  0.37627898489E+02  0.50528855065E+02  0.29999985455E+02 0.  0.
         12    1    1    2    0    0 -0.51970574388E+01  0.14501652187E+02 -0.37627898489E+02  0.40659144935E+02  0.00000000000E+00 0. -1.
         11    1    3    3    0    0  0.53360782378E+01 -0.94831354336E+01  0.63845066512E+01  0.12616081565E+02  0.51100000000E-03 0. -1.
        -11    1    3    3    0    0  0.60318944876E+01  0.48693400148E+01  0.21038199890E+02  0.22420974068E+02  0.51100000000E-03 0.  1.
        -12    1    3    3    0    0 -0.61709152866E+01 -0.98878567683E+01  0.10205191948E+02  0.15491799432E+02  0.00000000000E+00 0.  1.
</event>
<event>
 7    1  0.5972636E-013  0.5052883E+02  0.7816164E-02  0.1300439E+00
        -11   -1    0    0    0    0  0.00000000000E+00  0.00000000000E+00  0.45593999997E+02  0.45594000000E+02  0.51100000000E-03 0.  1.
         11   -1    0    0    0    0 -0.00000000000E+00 -0.00000000000E+00 -0.45593999997E+02  0.45594000000E+02  0.51100000000E-03 0. -1.
    9900012    2    1    2    0    0 -0.11207230444E+02 -0.70229727587E+01  0.38447933191E+02  0.50528834647E+02  0.29999923392E+02 0.  0.
         12    1    1    2    0    0  0.11207230444E+02  0.70229727587E+01 -0.38447933191E+02  0.40659165353E+02  0.00000000000E+00 0. -1.
         11    1    3    3    0    0 -0.14136734400E+01 -0.13547780984E+02  0.65593060915E+01  0.15118377521E+02  0.51100000000E-03 0. -1.
        -11    1    3    3    0    0 -0.97335946739E+01  0.93347739624E+00  0.19294434641E+02  0.21630752499E+02  0.51100000000E-03 0.  1.
         12    1    3    3    0    0 -0.59962330599E-01  0.55913308293E+01  0.12594192458E+02  0.13779704627E+02  0.00000000000E+00 0. -1.
</event>
<event>
 7    1  0.5972636E-013  0.5052884E+02  0.7816164E-02  0.1300439E+00
        -11   -1    0    0    0    0  0.00000000000E+00  0.00000000000E+00  0.45593999997E+02  0.45594000000E+02  0.51100000000E-03 0.  1.
         11   -1    0    0    0    0 -0.00000000000E+00 -0.00000000000E+00 -0.45593999997E+02  0.45594000000E+02  0.51100000000E-03 0. -1.
    9900012    2    1    2    0    0  0.22524140920E+00  0.71027399835E+01  0.40033330067E+02  0.50528841558E+02  0.29999944399E+02 0.  0.
         12    1    1    2    0    0 -0.22524140920E+00 -0.71027399835E+01 -0.40033330067E+02  0.40659158442E+02  0.00000000000E+00 0. -1.
         11    1    3    3    0    0 -0.43414797685E+01 -0.25009066042E+01  0.32526164039E+01  0.59734825818E+01  0.51100000000E-03 0. -1.
        -11    1    3    3    0    0  0.11637266898E+02  0.11567330305E+02  0.17816982643E+02  0.24221353843E+02  0.51100000000E-03 0.  1.
        -12    1    3    3    0    0 -0.70705457205E+01 -0.19636837174E+01  0.18963731020E+02  0.20334005133E+02  0.00000000000E+00 0.  1.
</event>
<event>
 7    1  0.5972636E-013  0.5052890E+02  0.7816164E-02  0.1300439E+00
        -11   -1    0    0    0    0  0.00000000000E+00  0.00000000000E+00  0.45593999997E+02  0.45594000000E+02  0.51100000000E-03 0. -1.
         11   -1    0    0    0    0 -0.00000000000E+00 -0.00000000000E+00 -0.45593999997E+02  0.45594000000E+02  0.51100000000E-03 0.  1.
    9900012    2    1    2    0    0 -0.23191498074E+02 -0.27992279413E+02 -0.18213986827E+02  0.50528897627E+02  0.30000114826E+02 0.  0.
         12    1    1    2    0    0  0.23191498074E+02  0.27992279413E+02  0.18213986827E+02  0.40659102373E+02  0.00000000000E+00 0. -1.
         11    1    3    3    0    0  0.29464470900E+01 -0.15298900629E+02 -0.11321695863E+02  0.19259249944E+02  0.51100000000E-03 0. -1.
        -11    1    3    3    0    0 -0.20468272339E+02 -0.11764598933E+02 -0.88311707868E+01  0.25206061540E+02  0.51100000000E-03 0.  1.
         12    1    3    3    0    0 -0.56696728245E+01 -0.92877985091E+00  0.19388798230E+01  0.60635861432E+01  0.00000000000E+00 0. -1.
</event>
<event>
 7    1  0.5972636E-013  0.5052885E+02  0.7816164E-02  0.1300439E+00
        -11   -1    0    0    0    0  0.00000000000E+00  0.00000000000E+00  0.45593999997E+02  0.45594000000E+02  0.51100000000E-03 0.  1.
         11   -1    0    0    0    0 -0.00000000000E+00 -0.00000000000E+00 -0.45593999997E+02  0.45594000000E+02  0.51100000000E-03 0. -1.
    9900012    2    1    2    0    0  0.26414365137E+02 -0.29743613624E+02  0.84121845646E+01  0.50528854828E+02  0.29999984734E+02 0.  0.
         12    1    1    2    0    0 -0.26414365137E+02  0.29743613624E+02 -0.84121845646E+01  0.40659145172E+02  0.00000000000E+00 0. -1.
         11    1    3    3    0    0 -0.14834167531E+01 -0.82854090208E+01  0.30791542655E+01  0.89626848186E+01  0.51100000000E-03 0. -1.
        -11    1    3    3    0    0  0.17140205155E+02 -0.67701889749E+01 -0.68489526146E+01  0.19660372420E+02  0.51100000000E-03 0.  1.
        -12    1    3    3    0    0  0.10757576735E+02 -0.14688015628E+02  0.12181982914E+02  0.21905797589E+02  0.00000000000E+00 0.  1.
</event>
<event>
 7    1  0.5972636E-013  0.5052883E+02  0.7816164E-02  0.1300439E+00
        -11   -1    0    0    0    0  0.00000000000E+00  0.00000000000E+00  0.45593999997E+02  0.45594000000E+02  0.51100000000E-03 0.  1.
         11   -1    0    0    0    0 -0.00000000000E+00 -0.00000000000E+00 -0.45593999997E+02  0.45594000000E+02  0.51100000000E-03 0. -1.
    9900012    2    1    2    0    0  0.18779624229E+02 -0.20403271360E+02  0.29735500974E+02  0.50528833917E+02  0.29999921175E+02 0.  0.
         12    1    1    2    0    0 -0.18779624229E+02  0.20403271360E+02 -0.29735500974E+02  0.40659166083E+02  0.00000000000E+00 0. -1.
         11    1    3    3    0    0  0.13127086604E+02  0.17083486703E+01  0.10245568813E+02  0.16739490388E+02  0.51100000000E-03 0. -1.
        -11    1    3    3    0    0  0.32669194456E+01 -0.17563692828E+02  0.21777186571E+02  0.28167391140E+02  0.51100000000E-03 0.  1.
         12    1    3    3    0    0  0.23856181794E+01 -0.45479272016E+01 -0.22872544097E+01  0.56219523890E+01  0.00000000000E+00 0. -1.
</event>
<event>
 7    1  0.5972636E-013  0.5052887E+02  0.7816164E-02  0.1300439E+00
        -11   -1    0    0    0    0  0.00000000000E+00  0.00000000000E+00  0.45593999997E+02  0.45594000000E+02  0.51100000000E-03 0. -1.
         11   -1    0    0    0    0 -0.00000000000E+00 -0.00000000000E+00 -0.45593999997E+02  0.45594000000E+02  0.51100000000E-03 0.  1.
    9900012    2    1    2    0    0  0.30151066124E+02  0.24770129331E+02  0.11424485095E+02  0.50528868736E+02  0.30000027009E+02 0.  0.
         12    1    1    2    0    0 -0.30151066124E+02 -0.24770129331E+02 -0.11424485095E+02  0.40659131264E+02  0.00000000000E+00 0. -1.
         11    1    3    3    0    0  0.13660602436E+02  0.35888490991E+00 -0.49227258977E+01  0.14524947085E+02  0.51100000000E-03 0. -1.
        -11    1    3    3    0    0  0.18355035328E+02  0.20733510322E+02  0.15694229967E+02  0.31829147438E+02  0.51100000000E-03 0.  1.
        -12    1    3    3    0    0 -0.18645716397E+01  0.36777340994E+01  0.65298102658E+00  0.41747742126E+01  0.00000000000E+00 0.  1.
</event>
<event>
 7    1  0.5972636E-013  0.5052886E+02  0.7816164E-02  0.1300439E+00
        -11   -1    0    0    0    0  0.00000000000E+00  0.00000000000E+00  0.45593999997E+02  0.45594000000E+02  0.51100000000E-03 0.  1.
         11   -1    0    0    0    0 -0.00000000000E+00 -0.00000000000E+00 -0.45593999997E+02  0.45594000000E+02  0.51100000000E-03 0. -1.
    9900012    2    1    2    0    0  0.86290037538E+01 -0.13462960939E+02  0.37382544484E+02  0.50528860128E+02  0.30000000845E+02 0.  0.
         12    1    1    2    0    0 -0.86290037538E+01  0.13462960939E+02 -0.37382544484E+02  0.40659139872E+02  0.00000000000E+00 0. -1.
         11    1    3    3    0    0 -0.72034046453E+01 -0.63998038174E+00  0.11604250095E+01  0.73242883502E+01  0.51100000000E-03 0. -1.
        -11    1    3    3    0    0  0.75719249181E+01 -0.10540637298E+01  0.20599230287E+02  0.21972104723E+02  0.51100000000E-03 0.  1.
         12    1    3    3    0    0  0.82604834810E+01 -0.11768916827E+02  0.15622889188E+02  0.21232467054E+02  0.00000000000E+00 0. -1.
</event>
<event>
 7    1  0.5972636E-013  0.5052884E+02  0.7816164E-02  0.1300439E+00
        -11   -1    0    0    0    0  0.00000000000E+00  0.00000000000E+00  0.45593999997E+02  0.45594000000E+02  0.51100000000E-03 0.  1.
         11   -1    0    0    0    0 -0.00000000000E+00 -0.00000000000E+00 -0.45593999997E+02  0.45594000000E+02  0.51100000000E-03 0. -1.
    9900012    2    1    2    0    0 -0.24739680680E+02 -0.16266035801E+02  0.27866315482E+02  0.50528840400E+02  0.29999940880E+02 0.  0.
         12    1    1    2    0    0  0.24739680680E+02  0.16266035801E+02 -0.27866315482E+02  0.40659159600E+02  0.00000000000E+00 0. -1.
         11    1    3    3    0    0 -0.12066878253E+02 -0.17974466470E+02  0.26552440547E+02  0.34259642364E+02  0.51100000000E-03 0. -1.
        -11    1    3    3    0    0 -0.32576699749E+01 -0.15727298113E+00  0.50148905891E+01  0.59821631822E+01  0.51100000000E-03 0.  1.
         12    1    3    3    0    0 -0.94151324529E+01  0.18657036503E+01 -0.37010156543E+01  0.10287034854E+02  0.00000000000E+00 0. -1.
</event>
<event>
 7    1  0.5972636E-013  0.5052885E+02  0.7816164E-02  0.1300439E+00
        -11   -1    0    0    0    0  0.00000000000E+00  0.00000000000E+00  0.45593999997E+02  0.45594000000E+02  0.51100000000E-03 0. -1.
         11   -1    0    0    0    0 -0.00000000000E+00 -0.00000000000E+00 -0.45593999997E+02  0.45594000000E+02  0.51100000000E-03 0.  1.
    9900012    2    1    2    0    0  0.28106610777E+02 -0.17049553935E+02 -0.23926916919E+02  0.50528853280E+02  0.29999980029E+02 0.  0.
         12    1    1    2    0    0 -0.28106610777E+02  0.17049553935E+02  0.23926916919E+02  0.40659146720E+02  0.00000000000E+00 0. -1.
         11    1    3    3    0    0  0.21556972144E+02  0.92076613536E+00 -0.19770735036E+02  0.29264873525E+02  0.51100000000E-03 0. -1.
        -11    1    3    3    0    0  0.29691850325E+01 -0.11254429563E+02 -0.64602654316E+01  0.13312147620E+02  0.51100000000E-03 0.  1.
        -12    1    3    3    0    0  0.35804536004E+01 -0.67158905075E+01  0.23040835491E+01  0.79518321344E+01  0.00000000000E+00 0.  1.
</event>
<event>
 7    1  0.5972636E-013  0.5052886E+02  0.7816164E-02  0.1300439E+00
        -11   -1    0    0    0    0  0.00000000000E+00  0.00000000000E+00  0.45593999997E+02  0.45594000000E+02  0.51100000000E-03 0. -1.
         11   -1    0    0    0    0 -0.00000000000E+00 -0.00000000000E+00 -0.45593999997E+02  0.45594000000E+02  0.51100000000E-03 0.  1.
    9900012    2    1    2    0    0  0.39528386371E+02 -0.53081133576E-01  0.95220533886E+01  0.50528860223E+02  0.30000001133E+02 0.  0.
         12    1    1    2    0    0 -0.39528386371E+02  0.53081133576E-01 -0.95220533886E+01  0.40659139777E+02  0.00000000000E+00 0. -1.
         11    1    3    3    0    0  0.12145040058E+02  0.91730380265E+01 -0.67704906635E+01  0.16657916098E+02  0.51100000000E-03 0. -1.
        -11    1    3    3    0    0  0.96805704364E+01 -0.66380740050E+01  0.53564166970E+01  0.12902273852E+02  0.51100000000E-03 0.  1.
         12    1    3    3    0    0  0.17702775877E+02 -0.25880451551E+01  0.10936127355E+02  0.20968670272E+02  0.00000000000E+00 0. -1.
</event>
<event>
 7    1  0.5972636E-013  0.5052886E+02  0.7816164E-02  0.1300439E+00
        -11   -1    0    0    0    0  0.00000000000E+00  0.00000000000E+00  0.45593999997E+02  0.45594000000E+02  0.51100000000E-03 0. -1.
         11   -1    0    0    0    0 -0.00000000000E+00 -0.00000000000E+00 -0.45593999997E+02  0.45594000000E+02  0.51100000000E-03 0.  1.
    9900012    2    1    2    0    0 -0.12019358571E+02  0.68111056468E+01 -0.38240153141E+02  0.50528862615E+02  0.30000008406E+02 0.  0.
         12    1    1    2    0    0  0.12019358571E+02 -0.68111056468E+01  0.38240153141E+02  0.40659137385E+02  0.00000000000E+00 0. -1.
         11    1    3    3    0    0  0.45855117242E+01 -0.26548208074E+01 -0.64878578310E+01  0.83765918361E+01  0.51100000000E-03 0. -1.
        -11    1    3    3    0    0 -0.15331958686E+02 -0.18010456730E+01 -0.12739574265E+02  0.20015231085E+02  0.51100000000E-03 0.  1.
        -12    1    3    3    0    0 -0.12729116093E+01  0.11266972127E+02 -0.19012721046E+02  0.22137039695E+02  0.00000000000E+00 0.  1.
</event>
<event>
 7    1  0.5972636E-013  0.5052885E+02  0.7816164E-02  0.1300439E+00
        -11   -1    0    0    0    0  0.00000000000E+00  0.00000000000E+00  0.45593999997E+02  0.45594000000E+02  0.51100000000E-03 0. -1.
         11   -1    0    0    0    0 -0.00000000000E+00 -0.00000000000E+00 -0.45593999997E+02  0.45594000000E+02  0.51100000000E-03 0.  1.
    9900012    2    1    2    0    0  0.30636622793E+02  0.51421440778E+01 -0.26232081454E+02  0.50528850977E+02  0.29999973031E+02 0.  0.
         12    1    1    2    0    0 -0.30636622793E+02 -0.51421440778E+01  0.26232081454E+02  0.40659149023E+02  0.00000000000E+00 0. -1.
         11    1    3    3    0    0  0.22339453981E+01  0.48822065615E+01  0.37539214662E+01  0.65512120701E+01  0.51100000000E-03 0. -1.
        -11    1    3    3    0    0  0.12540366019E+02 -0.73902857374E+01 -0.13287183205E+02  0.19708534724E+02  0.51100000000E-03 0.  1.
         12    1    3    3    0    0  0.15862311376E+02  0.76502232537E+01 -0.16698819715E+02  0.24269104184E+02  0.00000000000E+00 0. -1.
</event>
<event>
 7    1  0.5972636E-013  0.5052886E+02  0.7816164E-02  0.1300439E+00
        -11   -1    0    0    0    0  0.00000000000E+00  0.00000000000E+00  0.45593999997E+02  0.45594000000E+02  0.51100000000E-03 0.  1.
         11   -1    0    0    0    0 -0.00000000000E+00 -0.00000000000E+00 -0.45593999997E+02  0.45594000000E+02  0.51100000000E-03 0. -1.
    9900012    2    1    2    0    0 -0.27828126417E+02 -0.26400253831E+02 -0.13482860774E+02  0.50528861336E+02  0.30000004518E+02 0.  0.
         12    1    1    2    0    0  0.27828126417E+02  0.26400253831E+02  0.13482860774E+02  0.40659138664E+02  0.00000000000E+00 0. -1.
         11    1    3    3    0    0  0.33124962174E-01  0.34237588003E+01 -0.75252914584E+01  0.82676014285E+01  0.51100000000E-03 0. -1.
        -11    1    3    3    0    0 -0.10868593489E+02 -0.18065450322E+02 -0.44093911503E+01  0.21539023895E+02  0.51100000000E-03 0.  1.
         12    1    3    3    0    0 -0.16992657890E+02 -0.11758562309E+02 -0.15481781651E+01  0.20722236013E+02  0.00000000000E+00 0. -1.
</event>
<event>
 7    1  0.5972636E-013  0.5052887E+02  0.7816164E-02  0.1300439E+00
        -11   -1    0    0    0    0  0.00000000000E+00  0.00000000000E+00  0.45593999997E+02  0.45594000000E+02  0.51100000000E-03 0. -1.
         11   -1    0    0    0    0 -0.00000000000E+00 -0.00000000000E+00 -0.45593999997E+02  0.45594000000E+02  0.51100000000E-03 0.  1.
    9900012    2    1    2    0    0 -0.47242513479E+01  0.27515678682E+02 -0.29558990806E+02  0.50528867427E+02  0.30000023030E+02 0.  0.
         12    1    1    2    0    0  0.47242513479E+01 -0.27515678682E+02  0.29558990806E+02  0.40659132573E+02  0.00000000000E+00 0. -1.
         11    1    3    3    0    0  0.65713240457E+01 -0.32831789680E+01 -0.36581699321E+01  0.82063250827E+01  0.51100000000E-03 0. -1.
        -11    1    3    3    0    0 -0.42486221002E+01  0.20825140183E+02 -0.16083090817E+02  0.26653387475E+02  0.51100000000E-03 0.  1.
         12    1    3    3    0    0 -0.70469532934E+01  0.99737174670E+01 -0.98177300574E+01  0.15669154869E+02  0.00000000000E+00 0. -1.
</event>
<event>
 7    1  0.5972636E-013  0.5052880E+02  0.7816164E-02  0.1300439E+00
        -11   -1    0    0    0    0  0.00000000000E+00  0.00000000000E+00  0.45593999997E+02  0.45594000000E+02  0.51100000000E-03 0.  1.
         11   -1    0    0    0    0 -0.00000000000E+00 -0.00000000000E+00 -0.45593999997E+02  0.45594000000E+02  0.51100000000E-03 0. -1.
    9900012    2    1    2    0    0  0.13622723332E+02  0.12379382905E+02  0.36253871215E+02  0.50528795751E+02  0.29999805165E+02 0.  0.
         12    1    1    2    0    0 -0.13622723332E+02 -0.12379382905E+02 -0.36253871215E+02  0.40659204249E+02  0.00000000000E+00 0. -1.
         11    1    3    3    0    0  0.15036533326E+02  0.60107045951E+01  0.10167735041E+02  0.19120898000E+02  0.51100000000E-03 0. -1.
        -11    1    3    3    0    0 -0.55688500452E+01  0.60913368832E+01  0.25961437031E+02  0.27241745333E+02  0.51100000000E-03 0.  1.
        -12    1    3    3    0    0  0.41550400511E+01  0.27734142682E+00  0.12469914295E+00  0.41661524179E+01  0.00000000000E+00 0.  1.
</event>
<event>
 7    1  0.5972636E-013  0.5052886E+02  0.7816164E-02  0.1300439E+00
        -11   -1    0    0    0    0  0.00000000000E+00  0.00000000000E+00  0.45593999997E+02  0.45594000000E+02  0.51100000000E-03 0. -1.
         11   -1    0    0    0    0 -0.00000000000E+00 -0.00000000000E+00 -0.45593999997E+02  0.45594000000E+02  0.51100000000E-03 0.  1.
    9900012    2    1    2    0    0  0.23490431096E+02 -0.83725240665E+01 -0.32113330589E+02  0.50528861866E+02  0.30000006128E+02 0.  0.
         12    1    1    2    0    0 -0.23490431096E+02  0.83725240665E+01  0.32113330589E+02  0.40659138134E+02  0.00000000000E+00 0. -1.
         11    1    3    3    0    0 -0.29025700317E+00 -0.10454112985E+02 -0.22780070251E+01  0.10703365999E+02  0.51100000000E-03 0. -1.
        -11    1    3    3    0    0  0.22084253219E+02  0.52951423599E+01 -0.24968586396E+02  0.33751786319E+02  0.51100000000E-03 0.  1.
        -12    1    3    3    0    0  0.16964348798E+01 -0.32135534413E+01 -0.48667371672E+01  0.60737095482E+01  0.00000000000E+00 0.  1.
</event>
<event>
 7    1  0.5972636E-013  0.5052886E+02  0.7816164E-02  0.1300439E+00
        -11   -1    0    0    0    0  0.00000000000E+00  0.00000000000E+00  0.45593999997E+02  0.45594000000E+02  0.51100000000E-03 0.  1.
         11   -1    0    0    0    0 -0.00000000000E+00 -0.00000000000E+00 -0.45593999997E+02  0.45594000000E+02  0.51100000000E-03 0. -1.
    9900012    2    1    2    0    0  0.15470057177E+02 -0.85945482478E+01  0.36605697430E+02  0.50528855727E+02  0.29999987469E+02 0.  0.
         12    1    1    2    0    0 -0.15470057177E+02  0.85945482478E+01 -0.36605697430E+02  0.40659144273E+02  0.00000000000E+00 0. -1.
         11    1    3    3    0    0 -0.44134225319E+01 -0.61081440192E+01  0.26834098706E+02  0.27872146947E+02  0.51100000000E-03 0. -1.
        -11    1    3    3    0    0  0.16946750573E+02 -0.67307613018E+00  0.76523469570E+01  0.18606552627E+02  0.51100000000E-03 0.  1.
        -12    1    3    3    0    0  0.29367291362E+01 -0.18133280985E+01  0.21192517668E+01  0.40501561530E+01  0.00000000000E+00 0.  1.
</event>
<event>
 7    1  0.5972636E-013  0.5052885E+02  0.7816164E-02  0.1300439E+00
        -11   -1    0    0    0    0  0.00000000000E+00  0.00000000000E+00  0.45593999997E+02  0.45594000000E+02  0.51100000000E-03 0. -1.
         11   -1    0    0    0    0 -0.00000000000E+00 -0.00000000000E+00 -0.45593999997E+02  0.45594000000E+02  0.51100000000E-03 0.  1.
    9900012    2    1    2    0    0  0.17914343206E+02 -0.36391099031E+02  0.28161653818E+01  0.50528848894E+02  0.29999966700E+02 0.  0.
         12    1    1    2    0    0 -0.17914343206E+02  0.36391099031E+02 -0.28161653818E+01  0.40659151106E+02  0.00000000000E+00 0. -1.
         11    1    3    3    0    0  0.32544138357E+01 -0.29631621521E+02  0.11618731218E+02  0.31994048177E+02  0.51100000000E-03 0. -1.
        -11    1    3    3    0    0  0.93534720872E+01 -0.55169637898E+01 -0.59931284435E+01  0.12403302719E+02  0.51100000000E-03 0.  1.
         12    1    3    3    0    0  0.53064572826E+01 -0.12425137205E+01 -0.28094373931E+01  0.61314979983E+01  0.00000000000E+00 0. -1.
</event>
<event>
 7    1  0.5972636E-013  0.5052885E+02  0.7816164E-02  0.1300439E+00
        -11   -1    0    0    0    0  0.00000000000E+00  0.00000000000E+00  0.45593999997E+02  0.45594000000E+02  0.51100000000E-03 0.  1.
         11   -1    0    0    0    0 -0.00000000000E+00 -0.00000000000E+00 -0.45593999997E+02  0.45594000000E+02  0.51100000000E-03 0. -1.
    9900012    2    1    2    0    0 -0.54203529152E+01  0.79709713193E+01  0.39500000712E+02  0.50528847700E+02  0.29999963068E+02 0.  0.
         12    1    1    2    0    0  0.54203529152E+01 -0.79709713193E+01 -0.39500000712E+02  0.40659152300E+02  0.00000000000E+00 0. -1.
         11    1    3    3    0    0 -0.30885643995E+00  0.59487502632E+00 -0.46148897510E+01  0.46633117280E+01  0.51100000000E-03 0. -1.
        -11    1    3    3    0    0  0.19901882917E+01  0.23351970797E+00  0.13199683028E+02  0.13350918065E+02  0.51100000000E-03 0.  1.
         12    1    3    3    0    0 -0.71016847670E+01  0.71425765850E+01  0.30915207436E+02  0.32514617906E+02  0.00000000000E+00 0. -1.
</event>
<event>
 7    1  0.5972636E-013  0.5052884E+02  0.7816164E-02  0.1300439E+00
        -11   -1    0    0    0    0  0.00000000000E+00  0.00000000000E+00  0.45593999997E+02  0.45594000000E+02  0.51100000000E-03 0.  1.
         11   -1    0    0    0    0 -0.00000000000E+00 -0.00000000000E+00 -0.45593999997E+02  0.45594000000E+02  0.51100000000E-03 0. -1.
    9900012    2    1    2    0    0 -0.22210953605E+02 -0.14717933937E+02  0.30711938100E+02  0.50528841361E+02  0.29999943800E+02 0.  0.
         12    1    1    2    0    0  0.22210953605E+02  0.14717933937E+02 -0.30711938100E+02  0.40659158639E+02  0.00000000000E+00 0. -1.
         11    1    3    3    0    0 -0.77436560922E+00  0.66450440059E+01  0.12866112237E+02  0.14501486003E+02  0.51100000000E-03 0. -1.
        -11    1    3    3    0    0 -0.98579247947E+01 -0.14564968206E+02  0.77040269780E+01  0.19200755507E+02  0.51100000000E-03 0.  1.
        -12    1    3    3    0    0 -0.11578663201E+02 -0.67980097368E+01  0.10141798885E+02  0.16826599850E+02  0.00000000000E+00 0.  1.
</event>
<event>
 7    1  0.5972636E-013  0.5052886E+02  0.7816164E-02  0.1300439E+00
        -11   -1    0    0    0    0  0.00000000000E+00  0.00000000000E+00  0.45593999997E+02  0.45594000000E+02  0.51100000000E-03 0.  1.
         11   -1    0    0    0    0 -0.00000000000E+00 -0.00000000000E+00 -0.45593999997E+02  0.45594000000E+02  0.51100000000E-03 0. -1.
    9900012    2    1    2    0    0  0.23709014262E+02  0.61704300839E+01  0.32449562179E+02  0.50528860188E+02  0.30000001026E+02 0.  0.
         12    1    1    2    0    0 -0.23709014262E+02 -0.61704300839E+01 -0.32449562179E+02  0.40659139812E+02  0.00000000000E+00 0. -1.
         11    1    3    3    0    0  0.25342556980E+02  0.62214850015E+01  0.17967515787E+02  0.31682545569E+02  0.51100000000E-03 0.  1.
        -11    1    3    3    0    0  0.28746615848E+01 -0.46468612344E+01  0.51465663553E+01  0.75062736474E+01  0.51100000000E-03 0. -1.
         12    1    3    3    0    0 -0.45082043023E+01  0.45958063168E+01  0.93354800362E+01  0.11340040972E+02  0.00000000000E+00 0. -1.
</event>
<event>
 7    1  0.5972636E-013  0.5052887E+02  0.7816164E-02  0.1300439E+00
        -11   -1    0    0    0    0  0.00000000000E+00  0.00000000000E+00  0.45593999997E+02  0.45594000000E+02  0.51100000000E-03 0.  1.
         11   -1    0    0    0    0 -0.00000000000E+00 -0.00000000000E+00 -0.45593999997E+02  0.45594000000E+02  0.51100000000E-03 0. -1.
    9900012    2    1    2    0    0 -0.32075037697E+02 -0.59648120782E+01  0.24264750649E+02  0.50528866335E+02  0.30000019711E+02 0.  0.
         12    1    1    2    0    0  0.32075037697E+02  0.59648120782E+01 -0.24264750649E+02  0.40659133665E+02  0.00000000000E+00 0. -1.
         11    1    3    3    0    0 -0.13473747127E+02  0.56931583336E+01  0.16950169751E+02  0.22388884927E+02  0.51100000000E-03 0.  1.
        -11    1    3    3    0    0 -0.14840430936E+02 -0.15541876229E+02  0.74152777859E+01  0.22732678064E+02  0.51100000000E-03 0. -1.
         12    1    3    3    0    0 -0.37608596343E+01  0.38839058170E+01 -0.10069688812E+00  0.54073033433E+01  0.00000000000E+00 0. -1.
</event>
<event>
 7    1  0.5972636E-013  0.5052886E+02  0.7816164E-02  0.1300439E+00
        -11   -1    0    0    0    0  0.00000000000E+00  0.00000000000E+00  0.45593999997E+02  0.45594000000E+02  0.51100000000E-03 0.  1.
         11   -1    0    0    0    0 -0.00000000000E+00 -0.00000000000E+00 -0.45593999997E+02  0.45594000000E+02  0.51100000000E-03 0. -1.
    9900012    2    1    2    0    0 -0.44336531766E+01 -0.88485847685E+01  0.39436159693E+02  0.50528862967E+02  0.30000009475E+02 0.  0.
         12    1    1    2    0    0  0.44336531766E+01  0.88485847685E+01 -0.39436159693E+02  0.40659137033E+02  0.00000000000E+00 0. -1.
         11    1    3    3    0    0 -0.11472506593E+02 -0.32541517870E+01  0.25148235682E+02  0.27832385265E+02  0.51100000000E-03 0. -1.
        -11    1    3    3    0    0  0.45640000299E+01 -0.73156306880E+01  0.16727096863E+02  0.18818722548E+02  0.51100000000E-03 0.  1.
         12    1    3    3    0    0  0.24748533865E+01  0.17211977065E+01 -0.24391728514E+01  0.38777551532E+01  0.00000000000E+00 0. -1.
</event>
<event>
 7    1  0.5972636E-013  0.5052886E+02  0.7816164E-02  0.1300439E+00
        -11   -1    0    0    0    0  0.00000000000E+00  0.00000000000E+00  0.45593999997E+02  0.45594000000E+02  0.51100000000E-03 0. -1.
         11   -1    0    0    0    0 -0.00000000000E+00 -0.00000000000E+00 -0.45593999997E+02  0.45594000000E+02  0.51100000000E-03 0.  1.
    9900012    2    1    2    0    0 -0.34319824854E+02 -0.10440623438E+02 -0.19139192785E+02  0.50528859622E+02  0.29999999307E+02 0.  0.
         12    1    1    2    0    0  0.34319824854E+02  0.10440623438E+02  0.19139192785E+02  0.40659140378E+02  0.00000000000E+00 0. -1.
         11    1    3    3    0    0 -0.42706292807E+01 -0.87519479238E+01  0.31408012128E+01  0.10232277334E+02  0.51100000000E-03 0. -1.
        -11    1    3    3    0    0 -0.29317146036E+02 -0.53366193502E+01 -0.20519390871E+02  0.36180380869E+02  0.51100000000E-03 0.  1.
         12    1    3    3    0    0 -0.73204953724E+00  0.36479438362E+01 -0.17606031267E+01  0.41162014196E+01  0.00000000000E+00 0. -1.
</event>
<event>
 7    1  0.5972636E-013  0.5052887E+02  0.7816164E-02  0.1300439E+00
        -11   -1    0    0    0    0  0.00000000000E+00  0.00000000000E+00  0.45593999997E+02  0.45594000000E+02  0.51100000000E-03 0. -1.
         11   -1    0    0    0    0 -0.00000000000E+00 -0.00000000000E+00 -0.45593999997E+02  0.45594000000E+02  0.51100000000E-03 0.  1.
    9900012    2    1    2    0    0 -0.19228334958E+02 -0.17396937003E+02 -0.31317453460E+02  0.50528866050E+02  0.30000018847E+02 0.  0.
         12    1    1    2    0    0  0.19228334958E+02  0.17396937003E+02  0.31317453460E+02  0.40659133950E+02  0.00000000000E+00 0. -1.
         11    1    3    3    0    0  0.75273656580E+01 -0.66612467167E+01 -0.67328246405E+01  0.12098114294E+02  0.51100000000E-03 0. -1.
        -11    1    3    3    0    0 -0.22592918154E+02 -0.97797269733E+01 -0.17671177365E+02  0.30304348204E+02  0.51100000000E-03 0.  1.
         12    1    3    3    0    0 -0.41627824619E+01 -0.95596331308E+00 -0.69134514543E+01  0.81264035521E+01  0.00000000000E+00 0. -1.
</event>
<event>
 7    1  0.5972636E-013  0.5052885E+02  0.7816164E-02  0.1300439E+00
        -11   -1    0    0    0    0  0.00000000000E+00  0.00000000000E+00  0.45593999997E+02  0.45594000000E+02  0.51100000000E-03 0. -1.
         11   -1    0    0    0    0 -0.00000000000E+00 -0.00000000000E+00 -0.45593999997E+02  0.45594000000E+02  0.51100000000E-03 0.  1.
    9900012    2    1    2    0    0  0.23716344357E+02 -0.24082542839E+02 -0.22599394480E+02  0.50528849860E+02  0.29999969634E+02 0.  0.
         12    1    1    2    0    0 -0.23716344357E+02  0.24082542839E+02  0.22599394480E+02  0.40659150140E+02  0.00000000000E+00 0. -1.
         11    1    3    3    0    0  0.32916541707E+01  0.51794296772E+01 -0.24644711686E+01  0.66132516482E+01  0.51100000000E-03 0. -1.
        -11    1    3    3    0    0  0.22856786847E+02 -0.24724726789E+02 -0.15838252889E+02  0.37210147468E+02  0.51100000000E-03 0.  1.
        -12    1    3    3    0    0 -0.24320966603E+01 -0.45372457269E+01 -0.42966704228E+01  0.67054507435E+01  0.00000000000E+00 0.  1.
</event>
<event>
 7    1  0.5972636E-013  0.5052886E+02  0.7816164E-02  0.1300439E+00
        -11   -1    0    0    0    0  0.00000000000E+00  0.00000000000E+00  0.45593999997E+02  0.45594000000E+02  0.51100000000E-03 0. -1.
         11   -1    0    0    0    0 -0.00000000000E+00 -0.00000000000E+00 -0.45593999997E+02  0.45594000000E+02  0.51100000000E-03 0.  1.
    9900012    2    1    2    0    0 -0.15234723169E+02 -0.37657408055E+02  0.17286632552E+01  0.50528862674E+02  0.30000008583E+02 0.  0.
         12    1    1    2    0    0  0.15234723169E+02  0.37657408055E+02 -0.17286632552E+01  0.40659137326E+02  0.00000000000E+00 0. -1.
         11    1    3    3    0    0  0.94832248045E+00  0.12898017539E+01 -0.30044509800E+01  0.34043545708E+01  0.51100000000E-03 0. -1.
        -11    1    3    3    0    0 -0.19989136900E+02 -0.28787438695E+02  0.76876464541E+01  0.35880107705E+02  0.51100000000E-03 0.  1.
        -12    1    3    3    0    0  0.38060912502E+01 -0.10159771114E+02 -0.29545322189E+01  0.11244400398E+02  0.00000000000E+00 0.  1.
</event>
<event>
 7    1  0.5972636E-013  0.5052885E+02  0.7816164E-02  0.1300439E+00
        -11   -1    0    0    0    0  0.00000000000E+00  0.00000000000E+00  0.45593999997E+02  0.45594000000E+02  0.51100000000E-03 0. -1.
         11   -1    0    0    0    0 -0.00000000000E+00 -0.00000000000E+00 -0.45593999997E+02  0.45594000000E+02  0.51100000000E-03 0.  1.
    9900012    2    1    2    0    0  0.28942629686E+01  0.14458809623E+01 -0.40530222222E+02  0.50528852895E+02  0.29999978861E+02 0.  0.
         12    1    1    2    0    0 -0.28942629686E+01 -0.14458809623E+01  0.40530222222E+02  0.40659147105E+02  0.00000000000E+00 0. -1.
         11    1    3    3    0    0  0.43813905965E+01 -0.77974753513E+01 -0.78383160181E+01  0.11892703800E+02  0.51100000000E-03 0. -1.
        -11    1    3    3    0    0 -0.17497215351E+01  0.14419966846E+02 -0.28429300541E+02  0.31925258007E+02  0.51100000000E-03 0.  1.
        -12    1    3    3    0    0  0.26259390717E+00 -0.51766105322E+01 -0.42626056628E+01  0.67108910883E+01  0.00000000000E+00 0.  1.
</event>
<event>
 7    1  0.5972636E-013  0.5052886E+02  0.7816164E-02  0.1300439E+00
        -11   -1    0    0    0    0  0.00000000000E+00  0.00000000000E+00  0.45593999997E+02  0.45594000000E+02  0.51100000000E-03 0.  1.
         11   -1    0    0    0    0 -0.00000000000E+00 -0.00000000000E+00 -0.45593999997E+02  0.45594000000E+02  0.51100000000E-03 0. -1.
    9900012    2    1    2    0    0 -0.36879330760E+02 -0.13619265614E+01  0.17065338604E+02  0.50528860032E+02  0.30000000554E+02 0.  0.
         12    1    1    2    0    0  0.36879330760E+02  0.13619265614E+01 -0.17065338604E+02  0.40659139968E+02  0.00000000000E+00 0. -1.
         11    1    3    3    0    0 -0.26551821983E+02  0.42068931298E+01 -0.25837939035E+01  0.27006910072E+02  0.51100000000E-03 0. -1.
        -11    1    3    3    0    0 -0.75383393094E+01 -0.10397472435E+01  0.11381863554E+02  0.13691400663E+02  0.51100000000E-03 0.  1.
         12    1    3    3    0    0 -0.27891694670E+01 -0.45290724477E+01  0.82672689530E+01  0.98305492977E+01  0.00000000000E+00 0. -1.
</event>
<event>
 7    1  0.5972636E-013  0.5052884E+02  0.7816164E-02  0.1300439E+00
        -11   -1    0    0    0    0  0.00000000000E+00  0.00000000000E+00  0.45593999997E+02  0.45594000000E+02  0.51100000000E-03 0.  1.
         11   -1    0    0    0    0 -0.00000000000E+00 -0.00000000000E+00 -0.45593999997E+02  0.45594000000E+02  0.51100000000E-03 0. -1.
    9900012    2    1    2    0    0 -0.22793486752E+02  0.18752709588E+02  0.27963545253E+02  0.50528843365E+02  0.29999949892E+02 0.  0.
         12    1    1    2    0    0  0.22793486752E+02 -0.18752709588E+02 -0.27963545253E+02  0.40659156635E+02  0.00000000000E+00 0. -1.
         11    1    3    3    0    0  0.13855576380E+01  0.65753236956E+01  0.15302103721E+02  0.16712541106E+02  0.51100000000E-03 0. -1.
        -11    1    3    3    0    0 -0.14647849989E+02  0.40018705771E+00  0.11488804990E+02  0.18620212118E+02  0.51100000000E-03 0.  1.
         12    1    3    3    0    0 -0.95311944011E+01  0.11777198835E+02  0.11726365418E+01  0.15196090141E+02  0.00000000000E+00 0. -1.
</event>
<event>
 7    1  0.5972636E-013  0.5052882E+02  0.7816164E-02  0.1300439E+00
        -11   -1    0    0    0    0  0.00000000000E+00  0.00000000000E+00  0.45593999997E+02  0.45594000000E+02  0.51100000000E-03 0. -1.
         11   -1    0    0    0    0 -0.00000000000E+00 -0.00000000000E+00 -0.45593999997E+02  0.45594000000E+02  0.51100000000E-03 0.  1.
    9900012    2    1    2    0    0 -0.23500637553E+02  0.24049793967E+02 -0.22858180990E+02  0.50528819076E+02  0.29999876063E+02 0.  0.
         12    1    1    2    0    0  0.23500637553E+02 -0.24049793967E+02  0.22858180990E+02  0.40659180924E+02  0.00000000000E+00 0. -1.
         11    1    3    3    0    0 -0.27267336147E+01 -0.59138231860E+00 -0.38963918496E+01  0.47923563055E+01  0.51100000000E-03 0. -1.
        -11    1    3    3    0    0 -0.14824787159E+02  0.18543599727E+02  0.12794931429E+01  0.23775544328E+02  0.51100000000E-03 0.  1.
        -12    1    3    3    0    0 -0.59491167796E+01  0.60975765578E+01 -0.20241282284E+02  0.21960918442E+02  0.00000000000E+00 0.  1.
</event>
<event>
 7    1  0.5972636E-013  0.5052888E+02  0.7816164E-02  0.1300439E+00
        -11   -1    0    0    0    0  0.00000000000E+00  0.00000000000E+00  0.45593999997E+02  0.45594000000E+02  0.51100000000E-03 0. -1.
         11   -1    0    0    0    0 -0.00000000000E+00 -0.00000000000E+00 -0.45593999997E+02  0.45594000000E+02  0.51100000000E-03 0.  1.
    9900012    2    1    2    0    0 -0.28487336426E+02 -0.23146699144E+02 -0.17489033052E+02  0.50528876854E+02  0.30000051684E+02 0.  0.
         12    1    1    2    0    0  0.28487336426E+02  0.23146699144E+02  0.17489033052E+02  0.40659123146E+02  0.00000000000E+00 0. -1.
         11    1    3    3    0    0 -0.31034271734E+01  0.41260376073E+01 -0.31484294638E+01  0.60471526281E+01  0.51100000000E-03 0. -1.
        -11    1    3    3    0    0 -0.25357502191E+02 -0.29316934246E+02 -0.15914434122E+02  0.41901727466E+02  0.51100000000E-03 0.  1.
        -12    1    3    3    0    0 -0.26407061784E-01  0.20441974948E+01  0.15738305332E+01  0.25799967593E+01  0.00000000000E+00 0.  1.
</event>
<event>
 7    1  0.5972636E-013  0.5052886E+02  0.7816164E-02  0.1300439E+00
        -11   -1    0    0    0    0  0.00000000000E+00  0.00000000000E+00  0.45593999997E+02  0.45594000000E+02  0.51100000000E-03 0.  1.
         11   -1    0    0    0    0 -0.00000000000E+00 -0.00000000000E+00 -0.45593999997E+02  0.45594000000E+02  0.51100000000E-03 0. -1.
    9900012    2    1    2    0    0 -0.21094572721E+02 -0.19589563659E+02  0.28712953872E+02  0.50528859297E+02  0.29999998319E+02 0.  0.
         12    1    1    2    0    0  0.21094572721E+02  0.19589563659E+02 -0.28712953872E+02  0.40659140703E+02  0.00000000000E+00 0. -1.
         11    1    3    3    0    0 -0.33152366880E+01 -0.94828862633E+01  0.14789606539E+02  0.17878713265E+02  0.51100000000E-03 0. -1.
        -11    1    3    3    0    0 -0.19982121122E+02 -0.22204631464E+01  0.13934730571E+02  0.24462059142E+02  0.51100000000E-03 0.  1.
         12    1    3    3    0    0  0.22027850888E+01 -0.78862142494E+01 -0.11383237567E-01  0.81880868897E+01  0.00000000000E+00 0. -1.
</event>
<event>
 7    1  0.5972636E-013  0.5052884E+02  0.7816164E-02  0.1300439E+00
        -11   -1    0    0    0    0  0.00000000000E+00  0.00000000000E+00  0.45593999997E+02  0.45594000000E+02  0.51100000000E-03 0.  1.
         11   -1    0    0    0    0 -0.00000000000E+00 -0.00000000000E+00 -0.45593999997E+02  0.45594000000E+02  0.51100000000E-03 0. -1.
    9900012    2    1    2    0    0  0.19425082509E+02  0.17532723479E+02  0.31119716121E+02  0.50528844149E+02  0.29999952275E+02 0.  0.
         12    1    1    2    0    0 -0.19425082509E+02 -0.17532723479E+02 -0.31119716121E+02  0.40659155851E+02  0.00000000000E+00 0. -1.
         11    1    3    3    0    0  0.19088842980E+02 -0.10692908863E+01  0.15622771428E+02  0.24690044485E+02  0.51100000000E-03 0. -1.
        -11    1    3    3    0    0 -0.31072117229E+01  0.20234838371E+01  0.22198889663E+01  0.43217078584E+01  0.51100000000E-03 0.  1.
         12    1    3    3    0    0  0.34434512512E+01  0.16578530528E+02  0.13277055726E+02  0.21517091805E+02  0.00000000000E+00 0. -1.
</event>
<event>
 7    1  0.5972636E-013  0.5052880E+02  0.7816164E-02  0.1300439E+00
        -11   -1    0    0    0    0  0.00000000000E+00  0.00000000000E+00  0.45593999997E+02  0.45594000000E+02  0.51100000000E-03 0.  1.
         11   -1    0    0    0    0 -0.00000000000E+00 -0.00000000000E+00 -0.45593999997E+02  0.45594000000E+02  0.51100000000E-03 0. -1.
    9900012    2    1    2    0    0  0.35881163753E+02  0.51575551047E+01  0.18414999846E+02  0.50528800472E+02  0.29999819514E+02 0.  0.
         12    1    1    2    0    0 -0.35881163753E+02 -0.51575551047E+01 -0.18414999846E+02  0.40659199528E+02  0.00000000000E+00 0. -1.
         11    1    3    3    0    0  0.10554144060E+02 -0.28099896082E+01 -0.24878445248E+01  0.11201578866E+02  0.51100000000E-03 0. -1.
        -11    1    3    3    0    0  0.26452093596E+02  0.15971810731E+01  0.18920072209E+02  0.32561225033E+02  0.51100000000E-03 0.  1.
        -12    1    3    3    0    0 -0.11250739029E+01  0.63703636398E+01  0.19827721621E+01  0.67659965738E+01  0.00000000000E+00 0.  1.
</event>
<event>
 7    1  0.5972636E-013  0.5052886E+02  0.7816164E-02  0.1300439E+00
        -11   -1    0    0    0    0  0.00000000000E+00  0.00000000000E+00  0.45593999997E+02  0.45594000000E+02  0.51100000000E-03 0.  1.
         11   -1    0    0    0    0 -0.00000000000E+00 -0.00000000000E+00 -0.45593999997E+02  0.45594000000E+02  0.51100000000E-03 0. -1.
    9900012    2    1    2    0    0 -0.25381026595E+02 -0.74001459318E+00  0.31755648242E+02  0.50528864152E+02  0.30000013076E+02 0.  0.
         12    1    1    2    0    0  0.25381026595E+02  0.74001459318E+00 -0.31755648242E+02  0.40659135848E+02  0.00000000000E+00 0. -1.
         11    1    3    3    0    0 -0.19243499877E+02  0.12339282637E+02  0.12411520618E+02  0.26011843991E+02  0.51100000000E-03 0. -1.
        -11    1    3    3    0    0 -0.37367856415E+01 -0.78656166987E+01  0.14898861309E+02  0.17257101771E+02  0.51100000000E-03 0.  1.
         12    1    3    3    0    0 -0.24007410773E+01 -0.52136805315E+01  0.44452663157E+01  0.72599183895E+01  0.00000000000E+00 0. -1.
</event>
<event>
 7    1  0.5972636E-013  0.5052884E+02  0.7816164E-02  0.1300439E+00
        -11   -1    0    0    0    0  0.00000000000E+00  0.00000000000E+00  0.45593999997E+02  0.45594000000E+02  0.51100000000E-03 0.  1.
         11   -1    0    0    0    0 -0.00000000000E+00 -0.00000000000E+00 -0.45593999997E+02  0.45594000000E+02  0.51100000000E-03 0. -1.
    9900012    2    1    2    0    0 -0.63732648508E+01 -0.40002829973E+02  0.35103624035E+01  0.50528836766E+02  0.29999929834E+02 0.  0.
         12    1    1    2    0    0  0.63732648508E+01  0.40002829973E+02 -0.35103624035E+01  0.40659163234E+02  0.00000000000E+00 0. -1.
         11    1    3    3    0    0 -0.33044600364E+01  0.17689669300E+01  0.54051285456E-01  0.37485493107E+01  0.51100000000E-03 0. -1.
        -11    1    3    3    0    0 -0.46659400256E+01 -0.37723843948E+02 -0.39232324678E+01  0.38213232679E+02  0.51100000000E-03 0.  1.
        -12    1    3    3    0    0  0.15971352112E+01 -0.40479529545E+01  0.73795435858E+01  0.85670547763E+01  0.00000000000E+00 0.  1.
</event>
<event>
 7    1  0.5972636E-013  0.5052886E+02  0.7816164E-02  0.1300439E+00
        -11   -1    0    0    0    0  0.00000000000E+00  0.00000000000E+00  0.45593999997E+02  0.45594000000E+02  0.51100000000E-03 0. -1.
         11   -1    0    0    0    0 -0.00000000000E+00 -0.00000000000E+00 -0.45593999997E+02  0.45594000000E+02  0.51100000000E-03 0.  1.
    9900012    2    1    2    0    0  0.30304509617E+02  0.27176384441E+01 -0.26970671151E+02  0.50528856327E+02  0.29999989292E+02 0.  0.
         12    1    1    2    0    0 -0.30304509617E+02 -0.27176384441E+01  0.26970671151E+02  0.40659143673E+02  0.00000000000E+00 0. -1.
         11    1    3    3    0    0 -0.57288009209E+00  0.72590110000E+01 -0.52116816963E+01  0.89544993530E+01  0.51100000000E-03 0. -1.
        -11    1    3    3    0    0  0.16670155657E+02 -0.10780669943E+02 -0.13371738874E+02  0.23935754320E+02  0.51100000000E-03 0.  1.
        -12    1    3    3    0    0  0.14207234052E+02  0.62392973874E+01 -0.83872505806E+01  0.17638602655E+02  0.00000000000E+00 0.  1.
</event>
<event>
 7    1  0.5972636E-013  0.5052886E+02  0.7816164E-02  0.1300439E+00
        -11   -1    0    0    0    0  0.00000000000E+00  0.00000000000E+00  0.45593999997E+02  0.45594000000E+02  0.51100000000E-03 0. -1.
         11   -1    0    0    0    0 -0.00000000000E+00 -0.00000000000E+00 -0.45593999997E+02  0.45594000000E+02  0.51100000000E-03 0.  1.
    9900012    2    1    2    0    0 -0.38495239765E+02  0.10248518251E+02  0.81394096345E+01  0.50528860804E+02  0.30000002901E+02 0.  0.
         12    1    1    2    0    0  0.38495239765E+02 -0.10248518251E+02 -0.81394096345E+01  0.40659139196E+02  0.00000000000E+00 0. -1.
         11    1    3    3    0    0 -0.15280644576E+02 -0.60015657178E+01  0.45499020026E+01  0.17035800487E+02  0.51100000000E-03 0. -1.
        -11    1    3    3    0    0 -0.26065053791E+02  0.13562414862E+02  0.31742482170E+01  0.29553375070E+02  0.51100000000E-03 0.  1.
         12    1    3    3    0    0  0.28504586020E+01  0.26876691073E+01  0.41525941491E+00  0.39396852480E+01  0.00000000000E+00 0. -1.
</event>
<event>
 7    1  0.5972636E-013  0.5052886E+02  0.7816164E-02  0.1300439E+00
        -11   -1    0    0    0    0  0.00000000000E+00  0.00000000000E+00  0.45593999997E+02  0.45594000000E+02  0.51100000000E-03 0. -1.
         11   -1    0    0    0    0 -0.00000000000E+00 -0.00000000000E+00 -0.45593999997E+02  0.45594000000E+02  0.51100000000E-03 0.  1.
    9900012    2    1    2    0    0  0.25867020611E+02 -0.58172638010E+01 -0.30825682807E+02  0.50528855470E+02  0.29999986686E+02 0.  0.
         12    1    1    2    0    0 -0.25867020611E+02  0.58172638010E+01  0.30825682807E+02  0.40659144530E+02  0.00000000000E+00 0. -1.
         11    1    3    3    0    0 -0.28175580561E+01 -0.10315483982E+02 -0.10049338862E+02  0.14674367277E+02  0.51100000000E-03 0. -1.
        -11    1    3    3    0    0  0.24347711989E+02  0.28286234400E+01 -0.16573621871E+02  0.29588800784E+02  0.51100000000E-03 0.  1.
         12    1    3    3    0    0  0.43368666785E+01  0.16695967408E+01 -0.42027220741E+01  0.62656874081E+01  0.00000000000E+00 0. -1.
</event>
<event>
 7    1  0.5972636E-013  0.5052887E+02  0.7816164E-02  0.1300439E+00
        -11   -1    0    0    0    0  0.00000000000E+00  0.00000000000E+00  0.45593999997E+02  0.45594000000E+02  0.51100000000E-03 0.  1.
         11   -1    0    0    0    0 -0.00000000000E+00 -0.00000000000E+00 -0.45593999997E+02  0.45594000000E+02  0.51100000000E-03 0. -1.
    9900012    2    1    2    0    0  0.23482675364E+02  0.30556933357E+02 -0.12961597334E+02  0.50528865431E+02  0.30000016964E+02 0.  0.
         12    1    1    2    0    0 -0.23482675364E+02 -0.30556933357E+02  0.12961597334E+02  0.40659134569E+02  0.00000000000E+00 0. -1.
         11    1    3    3    0    0  0.19288343561E+02  0.66742733871E+01 -0.31724454406E+01  0.20655520640E+02  0.51100000000E-03 0. -1.
        -11    1    3    3    0    0  0.38051536304E+01  0.18545116139E+02 -0.24721879963E+00  0.18933083324E+02  0.51100000000E-03 0.  1.
         12    1    3    3    0    0  0.38917817273E+00  0.53375438309E+01 -0.95419330940E+01  0.10940261467E+02  0.00000000000E+00 0. -1.
</event>
<event>
 7    1  0.5972636E-013  0.5052886E+02  0.7816164E-02  0.1300439E+00
        -11   -1    0    0    0    0  0.00000000000E+00  0.00000000000E+00  0.45593999997E+02  0.45594000000E+02  0.51100000000E-03 0. -1.
         11   -1    0    0    0    0 -0.00000000000E+00 -0.00000000000E+00 -0.45593999997E+02  0.45594000000E+02  0.51100000000E-03 0.  1.
    9900012    2    1    2    0    0  0.16966562459E+02  0.33656678502E+02 -0.15248916976E+02  0.50528859350E+02  0.29999998480E+02 0.  0.
         12    1    1    2    0    0 -0.16966562459E+02 -0.33656678502E+02  0.15248916976E+02  0.40659140650E+02  0.00000000000E+00 0. -1.
         11    1    3    3    0    0  0.17642884178E+02  0.36730306561E+02 -0.13878865174E+02  0.43046598947E+02  0.51100000000E-03 0. -1.
        -11    1    3    3    0    0 -0.29848988009E+01 -0.19607530095E+01 -0.28085247014E+01  0.45433450755E+01  0.51100000000E-03 0.  1.
         12    1    3    3    0    0  0.23085770816E+01 -0.11128750488E+01  0.14384729002E+01  0.29389153272E+01  0.00000000000E+00 0. -1.
</event>
<event>
 7    1  0.5972636E-013  0.5052886E+02  0.7816164E-02  0.1300439E+00
        -11   -1    0    0    0    0  0.00000000000E+00  0.00000000000E+00  0.45593999997E+02  0.45594000000E+02  0.51100000000E-03 0.  1.
         11   -1    0    0    0    0 -0.00000000000E+00 -0.00000000000E+00 -0.45593999997E+02  0.45594000000E+02  0.51100000000E-03 0. -1.
    9900012    2    1    2    0    0  0.15851694727E+01 -0.21371545400E+01  0.40571979174E+02  0.50528859750E+02  0.29999999695E+02 0.  0.
         12    1    1    2    0    0 -0.15851694727E+01  0.21371545400E+01 -0.40571979174E+02  0.40659140250E+02  0.00000000000E+00 0. -1.
         11    1    3    3    0    0 -0.12292227199E+01 -0.80235271308E+01  0.19275788509E+02  0.20915161941E+02  0.51100000000E-03 0. -1.
        -11    1    3    3    0    0 -0.94926660484E+00  0.95724142559E+01  0.22862507498E+01  0.98873234258E+01  0.51100000000E-03 0.  1.
        -12    1    3    3    0    0  0.37636587975E+01 -0.36860416651E+01  0.19009939916E+02  0.19726374383E+02  0.00000000000E+00 0.  1.
</event>
<event>
 7    1  0.5972636E-013  0.5052879E+02  0.7816164E-02  0.1300439E+00
        -11   -1    0    0    0    0  0.00000000000E+00  0.00000000000E+00  0.45593999997E+02  0.45594000000E+02  0.51100000000E-03 0. -1.
         11   -1    0    0    0    0 -0.00000000000E+00 -0.00000000000E+00 -0.45593999997E+02  0.45594000000E+02  0.51100000000E-03 0.  1.
    9900012    2    1    2    0    0  0.22471376076E+02  0.33381501090E+02  0.58209933979E+01  0.50528790441E+02  0.29999789025E+02 0.  0.
         12    1    1    2    0    0 -0.22471376076E+02 -0.33381501090E+02 -0.58209933979E+01  0.40659209559E+02  0.00000000000E+00 0. -1.
         11    1    3    3    0    0  0.79733565368E+01  0.27515507514E+02 -0.10827983203E+01  0.28667926690E+02  0.51100000000E-03 0. -1.
        -11    1    3    3    0    0  0.12330994104E+02  0.25973572942E+01 -0.13984849743E+01  0.12678936903E+02  0.51100000000E-03 0.  1.
        -12    1    3    3    0    0  0.21670254358E+01  0.32686362818E+01  0.83022766925E+01  0.91819268490E+01  0.00000000000E+00 0.  1.
</event>
<event>
 7    1  0.5972636E-013  0.5052886E+02  0.7816164E-02  0.1300439E+00
        -11   -1    0    0    0    0  0.00000000000E+00  0.00000000000E+00  0.45593999997E+02  0.45594000000E+02  0.51100000000E-03 0. -1.
         11   -1    0    0    0    0 -0.00000000000E+00 -0.00000000000E+00 -0.45593999997E+02  0.45594000000E+02  0.51100000000E-03 0.  1.
    9900012    2    1    2    0    0 -0.32831200489E+02 -0.11840976559E+02  0.20858313549E+02  0.50528859631E+02  0.29999999335E+02 0.  0.
         12    1    1    2    0    0  0.32831200489E+02  0.11840976559E+02 -0.20858313549E+02  0.40659140369E+02  0.00000000000E+00 0. -1.
         11    1    3    3    0    0 -0.32211033614E+01  0.17823005328E+01  0.47661130675E+01  0.60222866162E+01  0.51100000000E-03 0. -1.
        -11    1    3    3    0    0 -0.21605614178E+02 -0.20740894815E+02  0.15635703035E+02  0.33785536719E+02  0.51100000000E-03 0.  1.
        -12    1    3    3    0    0 -0.80044829500E+01  0.71176177229E+01  0.45649744657E+00  0.10721036296E+02  0.00000000000E+00 0.  1.
</event>
<event>
 7    1  0.5972636E-013  0.5052883E+02  0.7816164E-02  0.1300439E+00
        -11   -1    0    0    0    0  0.00000000000E+00  0.00000000000E+00  0.45593999997E+02  0.45594000000E+02  0.51100000000E-03 0. -1.
         11   -1    0    0    0    0 -0.00000000000E+00 -0.00000000000E+00 -0.45593999997E+02  0.45594000000E+02  0.51100000000E-03 0.  1.
    9900012    2    1    2    0    0  0.14439151984E+02 -0.29246343144E+02 -0.24276125647E+02  0.50528831615E+02  0.29999914177E+02 0.  0.
         12    1    1    2    0    0 -0.14439151984E+02  0.29246343144E+02  0.24276125647E+02  0.40659168385E+02  0.00000000000E+00 0. -1.
         11    1    3    3    0    0  0.11976258721E+02 -0.23050245817E+02 -0.62478119640E+01  0.26716656972E+02  0.51100000000E-03 0.  1.
        -11    1    3    3    0    0 -0.23669380665E+01  0.13545128424E+01  0.89764981892E+00  0.28710409801E+01  0.51100000000E-03 0. -1.
         12    1    3    3    0    0  0.48298313290E+01 -0.75506101697E+01 -0.18925963502E+02  0.20941133663E+02  0.00000000000E+00 0. -1.
</event>
<event>
 7    1  0.5972636E-013  0.5052882E+02  0.7816164E-02  0.1300439E+00
        -11   -1    0    0    0    0  0.00000000000E+00  0.00000000000E+00  0.45593999997E+02  0.45594000000E+02  0.51100000000E-03 0.  1.
         11   -1    0    0    0    0 -0.00000000000E+00 -0.00000000000E+00 -0.45593999997E+02  0.45594000000E+02  0.51100000000E-03 0. -1.
    9900012    2    1    2    0    0  0.20233350911E+02 -0.19593293677E+02  0.29323771714E+02  0.50528816120E+02  0.29999867078E+02 0.  0.
         12    1    1    2    0    0 -0.20233350911E+02  0.19593293677E+02 -0.29323771714E+02  0.40659183880E+02  0.00000000000E+00 0. -1.
         11    1    3    3    0    0 -0.79032281148E+00 -0.13441083193E+02  0.31620833896E+01  0.13830621793E+02  0.51100000000E-03 0. -1.
        -11    1    3    3    0    0  0.10249611286E+02 -0.40480438038E+01  0.22623056651E+02  0.25164337517E+02  0.51100000000E-03 0.  1.
        -12    1    3    3    0    0  0.10774062436E+02 -0.21041666805E+01  0.35386316736E+01  0.11533856811E+02  0.00000000000E+00 0.  1.
</event>
<event>
 7    1  0.5972636E-013  0.5052886E+02  0.7816164E-02  0.1300439E+00
        -11   -1    0    0    0    0  0.00000000000E+00  0.00000000000E+00  0.45593999997E+02  0.45594000000E+02  0.51100000000E-03 0. -1.
         11   -1    0    0    0    0 -0.00000000000E+00 -0.00000000000E+00 -0.45593999997E+02  0.45594000000E+02  0.51100000000E-03 0.  1.
    9900012    2    1    2    0    0  0.13230733724E+02 -0.19338311375E+02 -0.33228645825E+02  0.50528861974E+02  0.30000006455E+02 0.  0.
         12    1    1    2    0    0 -0.13230733724E+02  0.19338311375E+02  0.33228645825E+02  0.40659138026E+02  0.00000000000E+00 0. -1.
         11    1    3    3    0    0 -0.75977716247E+01 -0.30340653498E+01 -0.15844485844E+02  0.17831977404E+02  0.51100000000E-03 0. -1.
        -11    1    3    3    0    0  0.13291856574E+02 -0.12771573965E+02 -0.78350202086E+01  0.20029330859E+02  0.51100000000E-03 0.  1.
         12    1    3    3    0    0  0.75366487746E+01 -0.35326720601E+01 -0.95491397715E+01  0.12667553711E+02  0.00000000000E+00 0. -1.
</event>
<event>
 7    1  0.5972636E-013  0.5052886E+02  0.7816164E-02  0.1300439E+00
        -11   -1    0    0    0    0  0.00000000000E+00  0.00000000000E+00  0.45593999997E+02  0.45594000000E+02  0.51100000000E-03 0.  1.
         11   -1    0    0    0    0 -0.00000000000E+00 -0.00000000000E+00 -0.45593999997E+02  0.45594000000E+02  0.51100000000E-03 0. -1.
    9900012    2    1    2    0    0 -0.24234021130E+02 -0.16364380791E+02  0.28250390919E+02  0.50528864177E+02  0.30000013152E+02 0.  0.
         12    1    1    2    0    0  0.24234021130E+02  0.16364380791E+02 -0.28250390919E+02  0.40659135823E+02  0.00000000000E+00 0. -1.
         11    1    3    3    0    0 -0.13793080806E+02 -0.56007572600E+01  0.21172231047E+01  0.15036628410E+02  0.51100000000E-03 0. -1.
        -11    1    3    3    0    0  0.16865775032E+01 -0.10701996346E+02  0.17585726545E+02  0.20655145796E+02  0.51100000000E-03 0.  1.
        -12    1    3    3    0    0 -0.12127517826E+02 -0.61627185062E-01  0.85474412691E+01  0.14837089970E+02  0.00000000000E+00 0.  1.
</event>
<event>
 7    1  0.5972636E-013  0.5052886E+02  0.7816164E-02  0.1300439E+00
        -11   -1    0    0    0    0  0.00000000000E+00  0.00000000000E+00  0.45593999997E+02  0.45594000000E+02  0.51100000000E-03 0.  1.
         11   -1    0    0    0    0 -0.00000000000E+00 -0.00000000000E+00 -0.45593999997E+02  0.45594000000E+02  0.51100000000E-03 0. -1.
    9900012    2    1    2    0    0 -0.19334374232E+01  0.26312405229E+02  0.30936793574E+02  0.50528855323E+02  0.29999986241E+02 0.  0.
         12    1    1    2    0    0  0.19334374232E+01 -0.26312405229E+02 -0.30936793574E+02  0.40659144677E+02  0.00000000000E+00 0. -1.
         11    1    3    3    0    0  0.63512171352E+01  0.29741608484E+02  0.21234804330E+02  0.37092022721E+02  0.51100000000E-03 0. -1.
        -11    1    3    3    0    0 -0.48217054452E+01 -0.67563272935E+00  0.49082732239E+01  0.69134990625E+01  0.51100000000E-03 0.  1.
         12    1    3    3    0    0 -0.34629491131E+01 -0.27535705254E+01  0.47937160200E+01  0.65233335404E+01  0.00000000000E+00 0. -1.
</event>
<event>
 7    1  0.5972636E-013  0.5052891E+02  0.7816164E-02  0.1300439E+00
        -11   -1    0    0    0    0  0.00000000000E+00  0.00000000000E+00  0.45593999997E+02  0.45594000000E+02  0.51100000000E-03 0.  1.
         11   -1    0    0    0    0 -0.00000000000E+00 -0.00000000000E+00 -0.45593999997E+02  0.45594000000E+02  0.51100000000E-03 0. -1.
    9900012    2    1    2    0    0  0.19843606443E+02  0.10577376422E+02  0.33874950603E+02  0.50528906466E+02  0.30000141694E+02 0.  0.
         12    1    1    2    0    0 -0.19843606443E+02 -0.10577376422E+02 -0.33874950603E+02  0.40659093534E+02  0.00000000000E+00 0. -1.
         11    1    3    3    0    0  0.14439707327E+01 -0.49613302231E+01 -0.16411264145E+01  0.54215445427E+01  0.51100000000E-03 0. -1.
        -11    1    3    3    0    0  0.87181275223E+01  0.18722114616E+01  0.21472650028E+02  0.23250497258E+02  0.51100000000E-03 0.  1.
         12    1    3    3    0    0  0.96815081881E+01  0.13666495184E+02  0.14043426989E+02  0.21856864666E+02  0.00000000000E+00 0. -1.
</event>
<event>
 7    1  0.5972636E-013  0.5052886E+02  0.7816164E-02  0.1300439E+00
        -11   -1    0    0    0    0  0.00000000000E+00  0.00000000000E+00  0.45593999997E+02  0.45594000000E+02  0.51100000000E-03 0. -1.
         11   -1    0    0    0    0 -0.00000000000E+00 -0.00000000000E+00 -0.45593999997E+02  0.45594000000E+02  0.51100000000E-03 0.  1.
    9900012    2    1    2    0    0  0.52527714797E+01  0.13190790845E+02 -0.38099572333E+02  0.50528856093E+02  0.29999988579E+02 0.  0.
         12    1    1    2    0    0 -0.52527714797E+01 -0.13190790845E+02  0.38099572333E+02  0.40659143907E+02  0.00000000000E+00 0. -1.
         11    1    3    3    0    0  0.11264719806E+02  0.16552885739E+02 -0.29240772738E+02  0.35438887245E+02  0.51100000000E-03 0. -1.
        -11    1    3    3    0    0 -0.85889052254E+01 -0.10922176190E+01 -0.72727204048E+01  0.11307285025E+02  0.51100000000E-03 0.  1.
         12    1    3    3    0    0  0.25769568992E+01 -0.22698772745E+01 -0.15860791899E+01  0.37826838222E+01  0.00000000000E+00 0. -1.
</event>
<event>
 7    1  0.5972636E-013  0.5052885E+02  0.7816164E-02  0.1300439E+00
        -11   -1    0    0    0    0  0.00000000000E+00  0.00000000000E+00  0.45593999997E+02  0.45594000000E+02  0.51100000000E-03 0.  1.
         11   -1    0    0    0    0 -0.00000000000E+00 -0.00000000000E+00 -0.45593999997E+02  0.45594000000E+02  0.51100000000E-03 0. -1.
    9900012    2    1    2    0    0  0.29867494076E+02 -0.27587945760E+02 -0.64610548898E-01  0.50528854311E+02  0.29999983163E+02 0.  0.
         12    1    1    2    0    0 -0.29867494076E+02  0.27587945760E+02  0.64610548898E-01  0.40659145689E+02  0.00000000000E+00 0. -1.
         11    1    3    3    0    0 -0.15967798865E+01 -0.11257139568E+02 -0.58204413160E+01  0.12773035451E+02  0.51100000000E-03 0. -1.
        -11    1    3    3    0    0  0.18207536219E+02 -0.70456709008E+01  0.85814959624E+01  0.21325991814E+02  0.51100000000E-03 0.  1.
        -12    1    3    3    0    0  0.13256737744E+02 -0.92851352913E+01 -0.28256651953E+01  0.16429827046E+02  0.00000000000E+00 0.  1.
</event>
<event>
 7    1  0.5972636E-013  0.5052883E+02  0.7816164E-02  0.1300439E+00
        -11   -1    0    0    0    0  0.00000000000E+00  0.00000000000E+00  0.45593999997E+02  0.45594000000E+02  0.51100000000E-03 0. -1.
         11   -1    0    0    0    0 -0.00000000000E+00 -0.00000000000E+00 -0.45593999997E+02  0.45594000000E+02  0.51100000000E-03 0.  1.
    9900012    2    1    2    0    0 -0.21701033122E+02  0.34238014159E+02 -0.31610103822E+01  0.50528825897E+02  0.29999896796E+02 0.  0.
         12    1    1    2    0    0  0.21701033122E+02 -0.34238014159E+02  0.31610103822E+01  0.40659174103E+02  0.00000000000E+00 0. -1.
         11    1    3    3    0    0 -0.14866655967E+02  0.56369781062E+01  0.76854765796E+01  0.17659545077E+02  0.51100000000E-03 0. -1.
        -11    1    3    3    0    0 -0.72059340588E+00  0.17759854437E+02 -0.26609349105E+01  0.17972541816E+02  0.51100000000E-03 0.  1.
         12    1    3    3    0    0 -0.61137837490E+01  0.10841181616E+02 -0.81855520514E+01  0.14896739004E+02  0.00000000000E+00 0. -1.
</event>
<event>
 7    1  0.5972636E-013  0.5052886E+02  0.7816164E-02  0.1300439E+00
        -11   -1    0    0    0    0  0.00000000000E+00  0.00000000000E+00  0.45593999997E+02  0.45594000000E+02  0.51100000000E-03 0.  1.
         11   -1    0    0    0    0 -0.00000000000E+00 -0.00000000000E+00 -0.45593999997E+02  0.45594000000E+02  0.51100000000E-03 0. -1.
    9900012    2    1    2    0    0 -0.20381585518E+02  0.34331217111E+02  0.76892216715E+01  0.50528860481E+02  0.30000001918E+02 0.  0.
         12    1    1    2    0    0  0.20381585518E+02 -0.34331217111E+02 -0.76892216715E+01  0.40659139519E+02  0.00000000000E+00 0. -1.
         11    1    3    3    0    0 -0.22007533181E+02  0.15685756590E+02 -0.19559329488E+01  0.27096127961E+02  0.51100000000E-03 0. -1.
        -11    1    3    3    0    0  0.51275365960E+01  0.94707404280E+01  0.19230842055E+01  0.10940055252E+02  0.51100000000E-03 0.  1.
         12    1    3    3    0    0 -0.35015889335E+01  0.91747200925E+01  0.77220704148E+01  0.12492677268E+02  0.00000000000E+00 0. -1.
</event>
<event>
 7    1  0.5972636E-013  0.5052887E+02  0.7816164E-02  0.1300439E+00
        -11   -1    0    0    0    0  0.00000000000E+00  0.00000000000E+00  0.45593999997E+02  0.45594000000E+02  0.51100000000E-03 0.  1.
         11   -1    0    0    0    0 -0.00000000000E+00 -0.00000000000E+00 -0.45593999997E+02  0.45594000000E+02  0.51100000000E-03 0. -1.
    9900012    2    1    2    0    0 -0.20421084482E+02  0.27651822883E+02  0.21714527257E+02  0.50528871946E+02  0.30000036766E+02 0.  0.
         12    1    1    2    0    0  0.20421084482E+02 -0.27651822883E+02 -0.21714527257E+02  0.40659128054E+02  0.00000000000E+00 0. -1.
         11    1    3    3    0    0  0.23218915376E+01  0.26965021850E+01  0.90182815215E+01  0.96949319858E+01  0.51100000000E-03 0. -1.
        -11    1    3    3    0    0 -0.12378036966E+02  0.16013421437E+02 -0.24857403532E+01  0.20391772130E+02  0.51100000000E-03 0.  1.
        -12    1    3    3    0    0 -0.10364939054E+02  0.89418992605E+01  0.15181986088E+02  0.20442167830E+02  0.00000000000E+00 0.  1.
</event>
<event>
 7    1  0.5972636E-013  0.5052885E+02  0.7816164E-02  0.1300439E+00
        -11   -1    0    0    0    0  0.00000000000E+00  0.00000000000E+00  0.45593999997E+02  0.45594000000E+02  0.51100000000E-03 0. -1.
         11   -1    0    0    0    0 -0.00000000000E+00 -0.00000000000E+00 -0.45593999997E+02  0.45594000000E+02  0.51100000000E-03 0.  1.
    9900012    2    1    2    0    0  0.94038388439E+01 -0.33990557920E+02 -0.20233050647E+02  0.50528849109E+02  0.29999967351E+02 0.  0.
         12    1    1    2    0    0 -0.94038388439E+01  0.33990557920E+02  0.20233050647E+02  0.40659150891E+02  0.00000000000E+00 0. -1.
         11    1    3    3    0    0  0.38465587014E+01  0.21873445899E+01  0.75659808481E+00  0.44892016129E+01  0.51100000000E-03 0. -1.
        -11    1    3    3    0    0  0.58391437502E+01 -0.35233175323E+02 -0.13025858607E+02  0.38015065905E+02  0.51100000000E-03 0.  1.
        -12    1    3    3    0    0 -0.28186360767E+00 -0.94472718709E+00 -0.79637901250E+01  0.80245815907E+01  0.00000000000E+00 0.  1.
</event>
<event>
 7    1  0.5972636E-013  0.5052887E+02  0.7816164E-02  0.1300439E+00
        -11   -1    0    0    0    0  0.00000000000E+00  0.00000000000E+00  0.45593999997E+02  0.45594000000E+02  0.51100000000E-03 0. -1.
         11   -1    0    0    0    0 -0.00000000000E+00 -0.00000000000E+00 -0.45593999997E+02  0.45594000000E+02  0.51100000000E-03 0.  1.
    9900012    2    1    2    0    0 -0.35102917815E+02  0.15543487005E+02  0.13392177745E+02  0.50528865084E+02  0.30000015909E+02 0.  0.
         12    1    1    2    0    0  0.35102917815E+02 -0.15543487005E+02 -0.13392177745E+02  0.40659134916E+02  0.00000000000E+00 0. -1.
         11    1    3    3    0    0 -0.13922034566E+02  0.25586875916E+01  0.15130325862E+02  0.20719476094E+02  0.51100000000E-03 0. -1.
        -11    1    3    3    0    0 -0.88798371301E+01  0.39788140027E+01 -0.86971423639E+01  0.13050775988E+02  0.51100000000E-03 0.  1.
        -12    1    3    3    0    0 -0.12301046118E+02  0.90059854107E+01  0.69589942472E+01  0.16758613002E+02  0.00000000000E+00 0.  1.
</event>
<event>
 7    1  0.5972636E-013  0.5052888E+02  0.7816164E-02  0.1300439E+00
        -11   -1    0    0    0    0  0.00000000000E+00  0.00000000000E+00  0.45593999997E+02  0.45594000000E+02  0.51100000000E-03 0. -1.
         11   -1    0    0    0    0 -0.00000000000E+00 -0.00000000000E+00 -0.45593999997E+02  0.45594000000E+02  0.51100000000E-03 0.  1.
    9900012    2    1    2    0    0  0.17497322530E+02 -0.98811463066E+01 -0.35346434603E+02  0.50528883098E+02  0.30000070665E+02 0.  0.
         12    1    1    2    0    0 -0.17497322530E+02  0.98811463066E+01  0.35346434603E+02  0.40659116902E+02  0.00000000000E+00 0. -1.
         11    1    3    3    0    0  0.23036579059E+00  0.33343509554E+01 -0.14008584289E+02  0.14401784567E+02  0.51100000000E-03 0. -1.
        -11    1    3    3    0    0  0.20088733685E+02 -0.14712270221E+02 -0.15104729675E+02  0.29123203377E+02  0.51100000000E-03 0.  1.
        -12    1    3    3    0    0 -0.28217769447E+01  0.14967729594E+01 -0.62331206396E+01  0.70038951538E+01  0.00000000000E+00 0.  1.
</event>
<event>
 7    1  0.5972636E-013  0.5052886E+02  0.7816164E-02  0.1300439E+00
        -11   -1    0    0    0    0  0.00000000000E+00  0.00000000000E+00  0.45593999997E+02  0.45594000000E+02  0.51100000000E-03 0.  1.
         11   -1    0    0    0    0 -0.00000000000E+00 -0.00000000000E+00 -0.45593999997E+02  0.45594000000E+02  0.51100000000E-03 0. -1.
    9900012    2    1    2    0    0  0.30781922176E+01  0.17585480699E+02  0.36530006632E+02  0.50528858552E+02  0.29999996054E+02 0.  0.
         12    1    1    2    0    0 -0.30781922176E+01 -0.17585480699E+02 -0.36530006632E+02  0.40659141448E+02  0.00000000000E+00 0. -1.
         11    1    3    3    0    0  0.61198704334E+01 -0.13971010888E+01  0.93688163760E+01  0.11277385607E+02  0.51100000000E-03 0. -1.
        -11    1    3    3    0    0 -0.10901298923E+02  0.90151674390E+01  0.20525989764E+02  0.24928453988E+02  0.51100000000E-03 0.  1.
        -12    1    3    3    0    0  0.78596207076E+01  0.99674143488E+01  0.66352004920E+01  0.14323018957E+02  0.00000000000E+00 0.  1.
</event>
<event>
 7    1  0.5972636E-013  0.5052887E+02  0.7816164E-02  0.1300439E+00
        -11   -1    0    0    0    0  0.00000000000E+00  0.00000000000E+00  0.45593999997E+02  0.45594000000E+02  0.51100000000E-03 0.  1.
         11   -1    0    0    0    0 -0.00000000000E+00 -0.00000000000E+00 -0.45593999997E+02  0.45594000000E+02  0.51100000000E-03 0. -1.
    9900012    2    1    2    0    0  0.36343828061E+02 -0.18217151672E+02  0.65314683034E+00  0.50528867521E+02  0.30000023315E+02 0.  0.
         12    1    1    2    0    0 -0.36343828061E+02  0.18217151672E+02 -0.65314683034E+00  0.40659132479E+02  0.00000000000E+00 0. -1.
         11    1    3    3    0    0  0.40329582683E+01  0.38574350864E+01  0.73216932026E+01  0.92060713366E+01  0.51100000000E-03 0. -1.
        -11    1    3    3    0    0  0.14537927731E+02 -0.10672812418E+02 -0.88596046229E+01  0.20093602513E+02  0.51100000000E-03 0.  1.
         12    1    3    3    0    0  0.17772942062E+02 -0.11401774341E+02  0.21910582506E+01  0.21229193671E+02  0.00000000000E+00 0. -1.
</event>
<event>
 7    1  0.5972636E-013  0.5052888E+02  0.7816164E-02  0.1300439E+00
        -11   -1    0    0    0    0  0.00000000000E+00  0.00000000000E+00  0.45593999997E+02  0.45594000000E+02  0.51100000000E-03 0.  1.
         11   -1    0    0    0    0 -0.00000000000E+00 -0.00000000000E+00 -0.45593999997E+02  0.45594000000E+02  0.51100000000E-03 0. -1.
    9900012    2    1    2    0    0 -0.30116386514E+02 -0.15896316435E+02  0.22214284341E+02  0.50528879970E+02  0.30000061155E+02 0.  0.
         12    1    1    2    0    0  0.30116386514E+02  0.15896316435E+02 -0.22214284341E+02  0.40659120030E+02  0.00000000000E+00 0. -1.
         11    1    3    3    0    0 -0.90458434852E+01  0.60850363091E+01  0.86789457113E+00  0.10936553044E+02  0.51100000000E-03 0. -1.
        -11    1    3    3    0    0 -0.15838306599E+02 -0.11330162745E+02  0.19543245604E+02  0.27589182531E+02  0.51100000000E-03 0.  1.
        -12    1    3    3    0    0 -0.52322364302E+01 -0.10651189999E+02  0.18031441657E+01  0.12003144394E+02  0.00000000000E+00 0.  1.
</event>
<event>
 7    1  0.5972636E-013  0.5052886E+02  0.7816164E-02  0.1300439E+00
        -11   -1    0    0    0    0  0.00000000000E+00  0.00000000000E+00  0.45593999997E+02  0.45594000000E+02  0.51100000000E-03 0.  1.
         11   -1    0    0    0    0 -0.00000000000E+00 -0.00000000000E+00 -0.45593999997E+02  0.45594000000E+02  0.51100000000E-03 0. -1.
    9900012    2    1    2    0    0  0.23643247033E+02  0.86361548446E+01  0.31930858693E+02  0.50528855424E+02  0.29999986546E+02 0.  0.
         12    1    1    2    0    0 -0.23643247033E+02 -0.86361548446E+01 -0.31930858693E+02  0.40659144576E+02  0.00000000000E+00 0. -1.
         11    1    3    3    0    0  0.38400877829E+01  0.13730060810E+02  0.22170713342E+02  0.26359085234E+02  0.51100000000E-03 0. -1.
        -11    1    3    3    0    0  0.19028198364E+02 -0.37802594425E+01  0.63148297842E+01  0.20401955051E+02  0.51100000000E-03 0.  1.
         12    1    3    3    0    0  0.77496088588E+00 -0.13136465229E+01  0.34453155668E+01  0.37678151383E+01  0.00000000000E+00 0. -1.
</event>
<event>
 7    1  0.5972636E-013  0.5052886E+02  0.7816164E-02  0.1300439E+00
        -11   -1    0    0    0    0  0.00000000000E+00  0.00000000000E+00  0.45593999997E+02  0.45594000000E+02  0.51100000000E-03 0.  1.
         11   -1    0    0    0    0 -0.00000000000E+00 -0.00000000000E+00 -0.45593999997E+02  0.45594000000E+02  0.51100000000E-03 0. -1.
    9900012    2    1    2    0    0 -0.12949404230E+02  0.18040569005E+02  0.34059016209E+02  0.50528858530E+02  0.29999995989E+02 0.  0.
         12    1    1    2    0    0  0.12949404230E+02 -0.18040569005E+02 -0.34059016209E+02  0.40659141470E+02  0.00000000000E+00 0. -1.
         11    1    3    3    0    0 -0.54508811521E+01 -0.27424472656E+01  0.97829600935E+01  0.11529936287E+02  0.51100000000E-03 0. -1.
        -11    1    3    3    0    0  0.63200086930E+01  0.75351776572E+01  0.27915438910E+01  0.10223215236E+02  0.51100000000E-03 0.  1.
        -12    1    3    3    0    0 -0.13818531771E+02  0.13247838614E+02  0.21484512224E+02  0.28775707007E+02  0.00000000000E+00 0.  1.
</event>
<event>
 7    1  0.5972636E-013  0.5052885E+02  0.7816164E-02  0.1300439E+00
        -11   -1    0    0    0    0  0.00000000000E+00  0.00000000000E+00  0.45593999997E+02  0.45594000000E+02  0.51100000000E-03 0. -1.
         11   -1    0    0    0    0 -0.00000000000E+00 -0.00000000000E+00 -0.45593999997E+02  0.45594000000E+02  0.51100000000E-03 0.  1.
    9900012    2    1    2    0    0  0.16716047705E+02  0.36704381694E+02 -0.51506022610E+01  0.50528848631E+02  0.29999965897E+02 0.  0.
         12    1    1    2    0    0 -0.16716047705E+02 -0.36704381694E+02  0.51506022610E+01  0.40659151369E+02  0.00000000000E+00 0. -1.
         11    1    3    3    0    0  0.61618834184E+01  0.22800873451E+02  0.43730641067E+01  0.24020248278E+02  0.51100000000E-03 0. -1.
        -11    1    3    3    0    0  0.96892947635E+01  0.10911632079E+02 -0.14542681779E+02  0.20601838297E+02  0.51100000000E-03 0.  1.
         12    1    3    3    0    0  0.86486952276E+00  0.29918761637E+01  0.50190154114E+01  0.59067620547E+01  0.00000000000E+00 0. -1.
</event>
<event>
 7    1  0.5972636E-013  0.5052886E+02  0.7816164E-02  0.1300439E+00
        -11   -1    0    0    0    0  0.00000000000E+00  0.00000000000E+00  0.45593999997E+02  0.45594000000E+02  0.51100000000E-03 0. -1.
         11   -1    0    0    0    0 -0.00000000000E+00 -0.00000000000E+00 -0.45593999997E+02  0.45594000000E+02  0.51100000000E-03 0.  1.
    9900012    2    1    2    0    0  0.14314586911E+02 -0.34893250371E+02 -0.15189443315E+02  0.50528861936E+02  0.30000006340E+02 0.  0.
         12    1    1    2    0    0 -0.14314586911E+02  0.34893250371E+02  0.15189443315E+02  0.40659138064E+02  0.00000000000E+00 0. -1.
         11    1    3    3    0    0 -0.19460506521E+01 -0.12296774230E+02 -0.37871183069E+01  0.13013071695E+02  0.51100000000E-03 0. -1.
        -11    1    3    3    0    0  0.14653258458E+02 -0.58406873388E+01 -0.13224905627E+02  0.20584696771E+02  0.51100000000E-03 0.  1.
        -12    1    3    3    0    0  0.16073791048E+01 -0.16755788802E+02  0.18225806189E+01  0.16931093470E+02  0.00000000000E+00 0.  1.
</event>
<event>
 7    1  0.5972636E-013  0.5052886E+02  0.7816164E-02  0.1300439E+00
        -11   -1    0    0    0    0  0.00000000000E+00  0.00000000000E+00  0.45593999997E+02  0.45594000000E+02  0.51100000000E-03 0.  1.
         11   -1    0    0    0    0 -0.00000000000E+00 -0.00000000000E+00 -0.45593999997E+02  0.45594000000E+02  0.51100000000E-03 0. -1.
    9900012    2    1    2    0    0 -0.27775955324E+02  0.12058367282E+02  0.27134075227E+02  0.50528856451E+02  0.29999989669E+02 0.  0.
         12    1    1    2    0    0  0.27775955324E+02 -0.12058367282E+02 -0.27134075227E+02  0.40659143549E+02  0.00000000000E+00 0. -1.
         11    1    3    3    0    0 -0.91520551516E+01  0.12302922347E+01 -0.50578401733E+01  0.10528792901E+02  0.51100000000E-03 0. -1.
        -11    1    3    3    0    0 -0.13720138352E+02  0.42923533246E+01  0.14042626036E+02  0.20096314083E+02  0.51100000000E-03 0.  1.
         12    1    3    3    0    0 -0.49037618209E+01  0.65357217226E+01  0.18149289364E+02  0.19903749467E+02  0.00000000000E+00 0. -1.
</event>
<event>
 7    1  0.5972636E-013  0.5052886E+02  0.7816164E-02  0.1300439E+00
        -11   -1    0    0    0    0  0.00000000000E+00  0.00000000000E+00  0.45593999997E+02  0.45594000000E+02  0.51100000000E-03 0.  1.
         11   -1    0    0    0    0 -0.00000000000E+00 -0.00000000000E+00 -0.45593999997E+02  0.45594000000E+02  0.51100000000E-03 0. -1.
    9900012    2    1    2    0    0  0.10377176030E+02  0.39305547928E+02  0.74425492757E+00  0.50528858400E+02  0.29999995591E+02 0.  0.
         12    1    1    2    0    0 -0.10377176030E+02 -0.39305547928E+02 -0.74425492757E+00  0.40659141600E+02  0.00000000000E+00 0. -1.
         11    1    3    3    0    0  0.12159792558E+02  0.11636847431E+02 -0.65102831752E+01  0.18046067728E+02  0.51100000000E-03 0. -1.
        -11    1    3    3    0    0  0.16965522917E+01  0.13597848131E+02  0.10931207592E+02  0.17529148957E+02  0.51100000000E-03 0.  1.
        -12    1    3    3    0    0 -0.34791688193E+01  0.14070852366E+02 -0.36766694895E+01  0.14953641714E+02  0.00000000000E+00 0.  1.
</event>
<event>
 7    1  0.5972636E-013  0.5052884E+02  0.7816164E-02  0.1300439E+00
        -11   -1    0    0    0    0  0.00000000000E+00  0.00000000000E+00  0.45593999997E+02  0.45594000000E+02  0.51100000000E-03 0.  1.
         11   -1    0    0    0    0 -0.00000000000E+00 -0.00000000000E+00 -0.45593999997E+02  0.45594000000E+02  0.51100000000E-03 0. -1.
    9900012    2    1    2    0    0  0.83278948975E+00  0.41995254637E+01  0.40433124186E+02  0.50528842558E+02  0.29999947438E+02 0.  0.
         12    1    1    2    0    0 -0.83278948975E+00 -0.41995254637E+01 -0.40433124186E+02  0.40659157442E+02  0.00000000000E+00 0. -1.
         11    1    3    3    0    0  0.26391925110E+01 -0.11041598893E+01  0.20888927135E+02  0.21083922388E+02  0.51100000000E-03 0. -1.
        -11    1    3    3    0    0 -0.28733031794E+01  0.96584259069E+01  0.72921333533E+00  0.10103109151E+02  0.51100000000E-03 0.  1.
         12    1    3    3    0    0  0.10669001582E+01 -0.43547405539E+01  0.18814983716E+02  0.19341811019E+02  0.00000000000E+00 0. -1.
</event>
<event>
 7    1  0.5972636E-013  0.5052886E+02  0.7816164E-02  0.1300439E+00
        -11   -1    0    0    0    0  0.00000000000E+00  0.00000000000E+00  0.45593999997E+02  0.45594000000E+02  0.51100000000E-03 0. -1.
         11   -1    0    0    0    0 -0.00000000000E+00 -0.00000000000E+00 -0.45593999997E+02  0.45594000000E+02  0.51100000000E-03 0.  1.
    9900012    2    1    2    0    0  0.23997921566E+02  0.99644167736E+01 -0.31272610115E+02  0.50528856077E+02  0.29999988531E+02 0.  0.
         12    1    1    2    0    0 -0.23997921566E+02 -0.99644167736E+01  0.31272610115E+02  0.40659143923E+02  0.00000000000E+00 0. -1.
         11    1    3    3    0    0 -0.18887070807E+01  0.27903556932E+01  0.22903049873E+01  0.40741620644E+01  0.51100000000E-03 0. -1.
        -11    1    3    3    0    0  0.28473617877E+02  0.76510280067E+01 -0.30613799136E+02  0.42502821581E+02  0.51100000000E-03 0.  1.
        -12    1    3    3    0    0 -0.25869892301E+01 -0.47696692626E+00 -0.29491159665E+01  0.39518724308E+01  0.00000000000E+00 0.  1.
</event>
<event>
 7    1  0.5972636E-013  0.5052886E+02  0.7816164E-02  0.1300439E+00
        -11   -1    0    0    0    0  0.00000000000E+00  0.00000000000E+00  0.45593999997E+02  0.45594000000E+02  0.51100000000E-03 0.  1.
         11   -1    0    0    0    0 -0.00000000000E+00 -0.00000000000E+00 -0.45593999997E+02  0.45594000000E+02  0.51100000000E-03 0. -1.
    9900012    2    1    2    0    0  0.22880707920E+02  0.24557711385E+02  0.22946845242E+02  0.50528859700E+02  0.29999999543E+02 0.  0.
         12    1    1    2    0    0 -0.22880707920E+02 -0.24557711385E+02 -0.22946845242E+02  0.40659140300E+02  0.00000000000E+00 0. -1.
         11    1    3    3    0    0  0.10156723876E+02  0.16793746972E+02 -0.83589682453E+00  0.19644024562E+02  0.51100000000E-03 0. -1.
        -11    1    3    3    0    0  0.88393971730E+01  0.85067526910E+01  0.23968387287E+02  0.26925515280E+02  0.51100000000E-03 0.  1.
         12    1    3    3    0    0  0.38845868708E+01 -0.74278827773E+00 -0.18564521970E+00  0.39593198570E+01  0.00000000000E+00 0. -1.
</event>
<event>
 7    1  0.5972636E-013  0.5052886E+02  0.7816164E-02  0.1300439E+00
        -11   -1    0    0    0    0  0.00000000000E+00  0.00000000000E+00  0.45593999997E+02  0.45594000000E+02  0.51100000000E-03 0.  1.
         11   -1    0    0    0    0 -0.00000000000E+00 -0.00000000000E+00 -0.45593999997E+02  0.45594000000E+02  0.51100000000E-03 0. -1.
    9900012    2    1    2    0    0  0.56448359569E+01 -0.83301696723E+01  0.39394286432E+02  0.50528859537E+02  0.29999999047E+02 0.  0.
         12    1    1    2    0    0 -0.56448359569E+01  0.83301696723E+01 -0.39394286432E+02  0.40659140463E+02  0.00000000000E+00 0. -1.
         11    1    3    3    0    0  0.60036853849E+01 -0.29666975188E+01  0.31176421438E+01  0.73868278149E+01  0.51100000000E-03 0. -1.
        -11    1    3    3    0    0 -0.11256021457E+02 -0.52906138110E+01  0.18547839696E+02  0.22331837614E+02  0.51100000000E-03 0.  1.
        -12    1    3    3    0    0  0.10897172029E+02 -0.72858342533E-01  0.17728804592E+02  0.20810194108E+02  0.00000000000E+00 0.  1.
</event>
<event>
 7    1  0.5972636E-013  0.5052886E+02  0.7816164E-02  0.1300439E+00
        -11   -1    0    0    0    0  0.00000000000E+00  0.00000000000E+00  0.45593999997E+02  0.45594000000E+02  0.51100000000E-03 0.  1.
         11   -1    0    0    0    0 -0.00000000000E+00 -0.00000000000E+00 -0.45593999997E+02  0.45594000000E+02  0.51100000000E-03 0. -1.
    9900012    2    1    2    0    0 -0.88592116195E+01  0.14377310330E+02  0.36986113931E+02  0.50528864414E+02  0.30000013874E+02 0.  0.
         12    1    1    2    0    0  0.88592116195E+01 -0.14377310330E+02 -0.36986113931E+02  0.40659135586E+02  0.00000000000E+00 0. -1.
         11    1    3    3    0    0  0.41311549234E+01  0.12578538198E+02  0.53719372228E+01  0.14287889067E+02  0.51100000000E-03 0. -1.
        -11    1    3    3    0    0 -0.97867091647E+01 -0.43835844704E+01  0.20219317846E+02  0.22887033524E+02  0.51100000000E-03 0.  1.
        -12    1    3    3    0    0 -0.32036573782E+01  0.61823566019E+01  0.11394858862E+02  0.13353941824E+02  0.00000000000E+00 0.  1.
</event>
<event>
 7    1  0.5972636E-013  0.5052888E+02  0.7816164E-02  0.1300439E+00
        -11   -1    0    0    0    0  0.00000000000E+00  0.00000000000E+00  0.45593999997E+02  0.45594000000E+02  0.51100000000E-03 0.  1.
         11   -1    0    0    0    0 -0.00000000000E+00 -0.00000000000E+00 -0.45593999997E+02  0.45594000000E+02  0.51100000000E-03 0. -1.
    9900012    2    1    2    0    0 -0.22974849853E+02  0.18735980476E+02  0.27825952675E+02  0.50528876394E+02  0.30000050286E+02 0.  0.
         12    1    1    2    0    0  0.22974849853E+02 -0.18735980476E+02 -0.27825952675E+02  0.40659123606E+02  0.00000000000E+00 0. -1.
         11    1    3    3    0    0  0.18084413849E+00 -0.18739341887E+00  0.14988630603E+02  0.14990892852E+02  0.51100000000E-03 0. -1.
        -11    1    3    3    0    0 -0.81403815857E+01  0.15629977563E+02  0.52055285563E+01  0.18375514654E+02  0.51100000000E-03 0.  1.
        -12    1    3    3    0    0 -0.15015312406E+02  0.32933963313E+01  0.76317935159E+01  0.17162468888E+02  0.00000000000E+00 0.  1.
</event>
<event>
 7    1  0.5972636E-013  0.5052886E+02  0.7816164E-02  0.1300439E+00
        -11   -1    0    0    0    0  0.00000000000E+00  0.00000000000E+00  0.45593999997E+02  0.45594000000E+02  0.51100000000E-03 0.  1.
         11   -1    0    0    0    0 -0.00000000000E+00 -0.00000000000E+00 -0.45593999997E+02  0.45594000000E+02  0.51100000000E-03 0. -1.
    9900012    2    1    2    0    0  0.11204046777E+02  0.22852366673E+02  0.31708113271E+02  0.50528858667E+02  0.29999996404E+02 0.  0.
         12    1    1    2    0    0 -0.11204046777E+02 -0.22852366673E+02 -0.31708113271E+02  0.40659141333E+02  0.00000000000E+00 0. -1.
         11    1    3    3    0    0 -0.54512515639E+00 -0.44692935131E+01 -0.80548736846E+00  0.45738994419E+01  0.51100000000E-03 0. -1.
        -11    1    3    3    0    0  0.13064103070E+02  0.26421485932E+02  0.26176221139E+02  0.39420302653E+02  0.51100000000E-03 0.  1.
         12    1    3    3    0    0 -0.13149311366E+01  0.90017425403E+00  0.63373795008E+01  0.65346565723E+01  0.00000000000E+00 0. -1.
</event>
<event>
 7    1  0.5972636E-013  0.5052887E+02  0.7816164E-02  0.1300439E+00
        -11   -1    0    0    0    0  0.00000000000E+00  0.00000000000E+00  0.45593999997E+02  0.45594000000E+02  0.51100000000E-03 0.  1.
         11   -1    0    0    0    0 -0.00000000000E+00 -0.00000000000E+00 -0.45593999997E+02  0.45594000000E+02  0.51100000000E-03 0. -1.
    9900012    2    1    2    0    0  0.23734074893E+02  0.48061401330E+01  0.32661291125E+02  0.50528865332E+02  0.30000016663E+02 0.  0.
         12    1    1    2    0    0 -0.23734074893E+02 -0.48061401330E+01 -0.32661291125E+02  0.40659134668E+02  0.00000000000E+00 0. -1.
         11    1    3    3    0    0 -0.85783236869E+00  0.93625626800E+01  0.14562273357E+01  0.95138874612E+01  0.51100000000E-03 0. -1.
        -11    1    3    3    0    0  0.23410477851E+02 -0.22025343891E+01  0.25247831400E+02  0.34501516222E+02  0.51100000000E-03 0.  1.
        -12    1    3    3    0    0  0.11814294106E+01 -0.23538881578E+01  0.59572323892E+01  0.65134616488E+01  0.00000000000E+00 0.  1.
</event>
<event>
 7    1  0.5972636E-013  0.5052886E+02  0.7816164E-02  0.1300439E+00
        -11   -1    0    0    0    0  0.00000000000E+00  0.00000000000E+00  0.45593999997E+02  0.45594000000E+02  0.51100000000E-03 0.  1.
         11   -1    0    0    0    0 -0.00000000000E+00 -0.00000000000E+00 -0.45593999997E+02  0.45594000000E+02  0.51100000000E-03 0. -1.
    9900012    2    1    2    0    0 -0.14776499795E+02  0.12755117718E+02  0.35666901548E+02  0.50528857851E+02  0.29999993925E+02 0.  0.
         12    1    1    2    0    0  0.14776499795E+02 -0.12755117718E+02 -0.35666901548E+02  0.40659142149E+02  0.00000000000E+00 0. -1.
         11    1    3    3    0    0 -0.81394311882E+01 -0.68615744313E+01  0.89641778269E+01  0.13917184633E+02  0.51100000000E-03 0. -1.
        -11    1    3    3    0    0 -0.30860583583E+01  0.21007868131E+02  0.22711977602E+02  0.31091609905E+02  0.51100000000E-03 0.  1.
        -12    1    3    3    0    0 -0.35510102486E+01 -0.13911759814E+01  0.39907461190E+01  0.55200633133E+01  0.00000000000E+00 0.  1.
</event>
<event>
 7    1  0.5972636E-013  0.5052886E+02  0.7816164E-02  0.1300439E+00
        -11   -1    0    0    0    0  0.00000000000E+00  0.00000000000E+00  0.45593999997E+02  0.45594000000E+02  0.51100000000E-03 0. -1.
         11   -1    0    0    0    0 -0.00000000000E+00 -0.00000000000E+00 -0.45593999997E+02  0.45594000000E+02  0.51100000000E-03 0.  1.
    9900012    2    1    2    0    0 -0.11498996714E+02 -0.31196302518E+02 -0.23403623358E+02  0.50528858316E+02  0.29999995337E+02 0.  0.
         12    1    1    2    0    0  0.11498996714E+02  0.31196302518E+02  0.23403623358E+02  0.40659141684E+02  0.00000000000E+00 0. -1.
         11    1    3    3    0    0 -0.15277958953E+02 -0.12781166408E+02 -0.11766068285E+02  0.23134705696E+02  0.51100000000E-03 0. -1.
        -11    1    3    3    0    0  0.84902053363E+01 -0.36408530779E+01 -0.52261469281E+01  0.10613765108E+02  0.51100000000E-03 0.  1.
        -12    1    3    3    0    0 -0.47112430972E+01 -0.14774283033E+02 -0.64114081451E+01  0.16780387512E+02  0.00000000000E+00 0.  1.
</event>
<event>
 7    1  0.5972636E-013  0.5052887E+02  0.7816164E-02  0.1300439E+00
        -11   -1    0    0    0    0  0.00000000000E+00  0.00000000000E+00  0.45593999997E+02  0.45594000000E+02  0.51100000000E-03 0. -1.
         11   -1    0    0    0    0 -0.00000000000E+00 -0.00000000000E+00 -0.45593999997E+02  0.45594000000E+02  0.51100000000E-03 0.  1.
    9900012    2    1    2    0    0  0.28607967798E+02  0.16561029978E+02 -0.23674480504E+02  0.50528873563E+02  0.30000041682E+02 0.  0.
         12    1    1    2    0    0 -0.28607967798E+02 -0.16561029978E+02  0.23674480504E+02  0.40659126437E+02  0.00000000000E+00 0. -1.
         11    1    3    3    0    0  0.43835888260E+01  0.31116001640E+01 -0.10429922846E+02  0.11733763139E+02  0.51100000000E-03 0. -1.
        -11    1    3    3    0    0  0.60272955326E+01  0.15920461026E+02 -0.17096202894E+01  0.17108833172E+02  0.51100000000E-03 0.  1.
        -12    1    3    3    0    0  0.18197083439E+02 -0.24710312112E+01 -0.11534937369E+02  0.21686277252E+02  0.00000000000E+00 0.  1.
</event>
<event>
 7    1  0.5972636E-013  0.5052884E+02  0.7816164E-02  0.1300439E+00
        -11   -1    0    0    0    0  0.00000000000E+00  0.00000000000E+00  0.45593999997E+02  0.45594000000E+02  0.51100000000E-03 0.  1.
         11   -1    0    0    0    0 -0.00000000000E+00 -0.00000000000E+00 -0.45593999997E+02  0.45594000000E+02  0.51100000000E-03 0. -1.
    9900012    2    1    2    0    0 -0.78224581513E+01 -0.10022814976E+02  0.38620200925E+02  0.50528836321E+02  0.29999928481E+02 0.  0.
         12    1    1    2    0    0  0.78224581513E+01  0.10022814976E+02 -0.38620200925E+02  0.40659163679E+02  0.00000000000E+00 0. -1.
         11    1    3    3    0    0  0.57816373120E+01 -0.99352215746E+01  0.21956163154E+02  0.24783241484E+02  0.51100000000E-03 0. -1.
        -11    1    3    3    0    0 -0.14881149866E+02  0.38809362180E+01  0.14009373181E+02  0.20803192651E+02  0.51100000000E-03 0.  1.
        -12    1    3    3    0    0  0.12770544029E+01 -0.39685296196E+01  0.26546645900E+01  0.49424021867E+01  0.00000000000E+00 0.  1.
</event>
<event>
 7    1  0.5972636E-013  0.5052886E+02  0.7816164E-02  0.1300439E+00
        -11   -1    0    0    0    0  0.00000000000E+00  0.00000000000E+00  0.45593999997E+02  0.45594000000E+02  0.51100000000E-03 0.  1.
         11   -1    0    0    0    0 -0.00000000000E+00 -0.00000000000E+00 -0.45593999997E+02  0.45594000000E+02  0.51100000000E-03 0. -1.
    9900012    2    1    2    0    0 -0.30585337316E+01 -0.95657076540E+01  0.39399342990E+02  0.50528860565E+02  0.30000002175E+02 0.  0.
         12    1    1    2    0    0  0.30585337316E+01  0.95657076540E+01 -0.39399342990E+02  0.40659139435E+02  0.00000000000E+00 0. -1.
         11    1    3    3    0    0 -0.11798150255E+02 -0.94216852555E+01  0.14399922326E+02  0.20864377914E+02  0.51100000000E-03 0.  1.
        -11    1    3    3    0    0  0.63057277034E+01 -0.59352918372E+01  0.90651376074E+01  0.12536610832E+02  0.51100000000E-03 0. -1.
        -12    1    3    3    0    0  0.24338888201E+01  0.57912694388E+01  0.15934283057E+02  0.17127871819E+02  0.00000000000E+00 0.  1.
</event>
<event>
 7    1  0.5972636E-013  0.5052886E+02  0.7816164E-02  0.1300439E+00
        -11   -1    0    0    0    0  0.00000000000E+00  0.00000000000E+00  0.45593999997E+02  0.45594000000E+02  0.51100000000E-03 0.  1.
         11   -1    0    0    0    0 -0.00000000000E+00 -0.00000000000E+00 -0.45593999997E+02  0.45594000000E+02  0.51100000000E-03 0. -1.
    9900012    2    1    2    0    0  0.39662949696E+02  0.85417593379E+01  0.26560406594E+01  0.50528858553E+02  0.29999996059E+02 0.  0.
         12    1    1    2    0    0 -0.39662949696E+02 -0.85417593379E+01 -0.26560406594E+01  0.40659141447E+02  0.00000000000E+00 0. -1.
         11    1    3    3    0    0 -0.35210539810E+00 -0.59015268468E+00  0.51737138160E+01  0.52191544634E+01  0.51100000000E-03 0. -1.
        -11    1    3    3    0    0  0.17599253386E+02  0.33586145741E+01 -0.10569267390E+02  0.20802005313E+02  0.51100000000E-03 0.  1.
        -12    1    3    3    0    0  0.22415801708E+02  0.57732974484E+01  0.80515942335E+01  0.24507698777E+02  0.00000000000E+00 0.  1.
</event>
<event>
 7    1  0.5972636E-013  0.5052887E+02  0.7816164E-02  0.1300439E+00
        -11   -1    0    0    0    0  0.00000000000E+00  0.00000000000E+00  0.45593999997E+02  0.45594000000E+02  0.51100000000E-03 0.  1.
         11   -1    0    0    0    0 -0.00000000000E+00 -0.00000000000E+00 -0.45593999997E+02  0.45594000000E+02  0.51100000000E-03 0. -1.
    9900012    2    1    2    0    0  0.93368682742E+01  0.34289569347E+02  0.19753805873E+02  0.50528874067E+02  0.30000043214E+02 0.  0.
         12    1    1    2    0    0 -0.93368682742E+01 -0.34289569347E+02 -0.19753805873E+02  0.40659125933E+02  0.00000000000E+00 0. -1.
         11    1    3    3    0    0  0.13297534476E+01  0.64072851441E+01 -0.31838382667E+01  0.72772504092E+01  0.51100000000E-03 0. -1.
        -11    1    3    3    0    0  0.10681638865E+02  0.28704267218E+02  0.25193236932E+02  0.39657679619E+02  0.51100000000E-03 0.  1.
        -12    1    3    3    0    0 -0.26745240385E+01 -0.82198301450E+00 -0.22555927928E+01  0.35939440390E+01  0.00000000000E+00 0.  1.
</event>
<event>
 7    1  0.5972636E-013  0.5052886E+02  0.7816164E-02  0.1300439E+00
        -11   -1    0    0    0    0  0.00000000000E+00  0.00000000000E+00  0.45593999997E+02  0.45594000000E+02  0.51100000000E-03 0.  1.
         11   -1    0    0    0    0 -0.00000000000E+00 -0.00000000000E+00 -0.45593999997E+02  0.45594000000E+02  0.51100000000E-03 0. -1.
    9900012    2    1    2    0    0 -0.13705352826E+02 -0.19424851831E+02  0.32984907149E+02  0.50528860015E+02  0.30000000501E+02 0.  0.
         12    1    1    2    0    0  0.13705352826E+02  0.19424851831E+02 -0.32984907149E+02  0.40659139985E+02  0.00000000000E+00 0. -1.
         11    1    3    3    0    0 -0.17445484266E+02 -0.15205597857E+02  0.22166144462E+02  0.32045172617E+02  0.51100000000E-03 0.  1.
        -11    1    3    3    0    0  0.15048288867E+01 -0.31337321202E+01 -0.29089650986E+01  0.45328650085E+01  0.51100000000E-03 0. -1.
         12    1    3    3    0    0  0.22353025530E+01 -0.10855218535E+01  0.13727727785E+02  0.13950822389E+02  0.00000000000E+00 0. -1.
</event>
<event>
 7    1  0.5972636E-013  0.5052886E+02  0.7816164E-02  0.1300439E+00
        -11   -1    0    0    0    0  0.00000000000E+00  0.00000000000E+00  0.45593999997E+02  0.45594000000E+02  0.51100000000E-03 0.  1.
         11   -1    0    0    0    0 -0.00000000000E+00 -0.00000000000E+00 -0.45593999997E+02  0.45594000000E+02  0.51100000000E-03 0. -1.
    9900012    2    1    2    0    0 -0.17547531849E+02 -0.92117058562E+01  0.35502028484E+02  0.50528862955E+02  0.30000009439E+02 0.  0.
         12    1    1    2    0    0  0.17547531849E+02  0.92117058562E+01 -0.35502028484E+02  0.40659137045E+02  0.00000000000E+00 0. -1.
         11    1    3    3    0    0 -0.41789910605E+01  0.90496003636E+01  0.74116179701E+01  0.12421405485E+02  0.51100000000E-03 0. -1.
        -11    1    3    3    0    0 -0.11519396181E+02 -0.20082225357E+02  0.25049163257E+02  0.34109424560E+02  0.51100000000E-03 0.  1.
        -12    1    3    3    0    0 -0.18491446071E+01  0.18209191367E+01  0.30412472560E+01  0.39980329104E+01  0.00000000000E+00 0.  1.
</event>
<event>
 7    1  0.5972636E-013  0.5052886E+02  0.7816164E-02  0.1300439E+00
        -11   -1    0    0    0    0  0.00000000000E+00  0.00000000000E+00  0.45593999997E+02  0.45594000000E+02  0.51100000000E-03 0. -1.
         11   -1    0    0    0    0 -0.00000000000E+00 -0.00000000000E+00 -0.45593999997E+02  0.45594000000E+02  0.51100000000E-03 0.  1.
    9900012    2    1    2    0    0  0.70112561134E+01  0.39978559464E+02  0.23922419382E+01  0.50528858954E+02  0.29999997275E+02 0.  0.
         12    1    1    2    0    0 -0.70112561134E+01 -0.39978559464E+02 -0.23922419382E+01  0.40659141046E+02  0.00000000000E+00 0. -1.
         11    1    3    3    0    0  0.21585001064E+01 -0.29358639382E+01  0.17335544743E+01  0.40352981487E+01  0.51100000000E-03 0. -1.
        -11    1    3    3    0    0  0.26504311502E+01  0.34445335280E+02  0.75410392561E+01  0.35360616244E+02  0.51100000000E-03 0.  1.
         12    1    3    3    0    0  0.22023248568E+01  0.84690881229E+01 -0.68823517922E+01  0.11132944561E+02  0.00000000000E+00 0. -1.
</event>
<event>
 7    1  0.5972636E-013  0.5052895E+02  0.7816164E-02  0.1300438E+00
        -11   -1    0    0    0    0  0.00000000000E+00  0.00000000000E+00  0.45593999997E+02  0.45594000000E+02  0.51100000000E-03 0.  1.
         11   -1    0    0    0    0 -0.00000000000E+00 -0.00000000000E+00 -0.45593999997E+02  0.45594000000E+02  0.51100000000E-03 0. -1.
    9900012    2    1    2    0    0 -0.42407922379E+01  0.28045374743E+01  0.40339908423E+02  0.50528954748E+02  0.30000288450E+02 0.  0.
         12    1    1    2    0    0  0.42407922379E+01 -0.28045374743E+01 -0.40339908423E+02  0.40659045252E+02  0.00000000000E+00 0. -1.
         11    1    3    3    0    0 -0.11096824869E+02 -0.14497045708E+01  0.89167126224E+01  0.14309050624E+02  0.51100000000E-03 0. -1.
        -11    1    3    3    0    0  0.87492077759E+01  0.90811870179E+01  0.24667860857E+02  0.27704150481E+02  0.51100000000E-03 0.  1.
        -12    1    3    3    0    0 -0.18931751446E+01 -0.48269449728E+01  0.67553349438E+01  0.85157536426E+01  0.00000000000E+00 0.  1.
</event>
<event>
 7    1  0.5972636E-013  0.5052886E+02  0.7816164E-02  0.1300439E+00
        -11   -1    0    0    0    0  0.00000000000E+00  0.00000000000E+00  0.45593999997E+02  0.45594000000E+02  0.51100000000E-03 0.  1.
         11   -1    0    0    0    0 -0.00000000000E+00 -0.00000000000E+00 -0.45593999997E+02  0.45594000000E+02  0.51100000000E-03 0. -1.
    9900012    2    1    2    0    0 -0.61468187491E+00  0.46455348096E+01  0.40388202383E+02  0.50528859340E+02  0.29999998449E+02 0.  0.
         12    1    1    2    0    0  0.61468187491E+00 -0.46455348096E+01 -0.40388202383E+02  0.40659140660E+02  0.00000000000E+00 0. -1.
         11    1    3    3    0    0 -0.12896843826E+02  0.62333675344E+01  0.20000935205E+02  0.24601236978E+02  0.51100000000E-03 0. -1.
        -11    1    3    3    0    0  0.53197648631E+01 -0.53659551406E+01  0.13309707844E+02  0.15304956580E+02  0.51100000000E-03 0.  1.
         12    1    3    3    0    0  0.69623970875E+01  0.37781224158E+01  0.70775593343E+01  0.10622665782E+02  0.00000000000E+00 0. -1.
</event>
<event>
 7    1  0.5972636E-013  0.5052886E+02  0.7816164E-02  0.1300439E+00
        -11   -1    0    0    0    0  0.00000000000E+00  0.00000000000E+00  0.45593999997E+02  0.45594000000E+02  0.51100000000E-03 0.  1.
         11   -1    0    0    0    0 -0.00000000000E+00 -0.00000000000E+00 -0.45593999997E+02  0.45594000000E+02  0.51100000000E-03 0. -1.
    9900012    2    1    2    0    0  0.31513169155E+01 -0.32528093644E+02  0.24190031293E+02  0.50528864638E+02  0.30000014554E+02 0.  0.
         12    1    1    2    0    0 -0.31513169155E+01  0.32528093644E+02 -0.24190031293E+02  0.40659135362E+02  0.00000000000E+00 0. -1.
         11    1    3    3    0    0  0.61804912918E+01  0.31385533902E+01  0.20864143869E+01  0.72389305319E+01  0.51100000000E-03 0. -1.
        -11    1    3    3    0    0 -0.65376662908E+01 -0.19785212501E+02  0.10682547734E+02  0.23416074406E+02  0.51100000000E-03 0.  1.
         12    1    3    3    0    0  0.35084919145E+01 -0.15881434533E+02  0.11421069173E+02  0.19873859700E+02  0.00000000000E+00 0. -1.
</event>
<event>
 7    1  0.5972636E-013  0.5052889E+02  0.7816164E-02  0.1300439E+00
        -11   -1    0    0    0    0  0.00000000000E+00  0.00000000000E+00  0.45593999997E+02  0.45594000000E+02  0.51100000000E-03 0.  1.
         11   -1    0    0    0    0 -0.00000000000E+00 -0.00000000000E+00 -0.45593999997E+02  0.45594000000E+02  0.51100000000E-03 0. -1.
    9900012    2    1    2    0    0 -0.80694999092E+01  0.39338628055E+02 -0.63654525116E+01  0.50528886978E+02  0.30000082459E+02 0.  0.
         12    1    1    2    0    0  0.80694999092E+01 -0.39338628055E+02  0.63654525116E+01  0.40659113022E+02  0.00000000000E+00 0. -1.
         11    1    3    3    0    0  0.78950678457E+01  0.13324480496E+02 -0.78320165399E-01  0.15488060275E+02  0.51100000000E-03 0. -1.
        -11    1    3    3    0    0 -0.15877283891E+02  0.12288618447E+02 -0.33520830308E+00  0.20080105875E+02  0.51100000000E-03 0.  1.
         12    1    3    3    0    0 -0.87283863608E-01  0.13725529112E+02 -0.59519240431E+01  0.14960720828E+02  0.00000000000E+00 0. -1.
</event>
<event>
 7    1  0.5972636E-013  0.5052886E+02  0.7816164E-02  0.1300439E+00
        -11   -1    0    0    0    0  0.00000000000E+00  0.00000000000E+00  0.45593999997E+02  0.45594000000E+02  0.51100000000E-03 0.  1.
         11   -1    0    0    0    0 -0.00000000000E+00 -0.00000000000E+00 -0.45593999997E+02  0.45594000000E+02  0.51100000000E-03 0. -1.
    9900012    2    1    2    0    0 -0.12046008962E+02 -0.35644073543E+02  0.15412967308E+02  0.50528857463E+02  0.29999992745E+02 0.  0.
         12    1    1    2    0    0  0.12046008962E+02  0.35644073543E+02 -0.15412967308E+02  0.40659142537E+02  0.00000000000E+00 0. -1.
         11    1    3    3    0    0  0.72309537544E+01 -0.39684096231E+01 -0.16021982920E+01  0.84025000305E+01  0.51100000000E-03 0. -1.
        -11    1    3    3    0    0 -0.11199769019E+02 -0.24343775043E+02  0.15905396139E+02  0.31161447912E+02  0.51100000000E-03 0.  1.
        -12    1    3    3    0    0 -0.80771936975E+01 -0.73318888769E+01  0.11097694604E+01  0.10964909520E+02  0.00000000000E+00 0.  1.
</event>
<event>
 7    1  0.5972636E-013  0.5052886E+02  0.7816164E-02  0.1300439E+00
        -11   -1    0    0    0    0  0.00000000000E+00  0.00000000000E+00  0.45593999997E+02  0.45594000000E+02  0.51100000000E-03 0.  1.
         11   -1    0    0    0    0 -0.00000000000E+00 -0.00000000000E+00 -0.45593999997E+02  0.45594000000E+02  0.51100000000E-03 0. -1.
    9900012    2    1    2    0    0  0.33033881390E+02 -0.21689777442E+02  0.95646195475E+01  0.50528859425E+02  0.29999998708E+02 0.  0.
         12    1    1    2    0    0 -0.33033881390E+02  0.21689777442E+02 -0.95646195475E+01  0.40659140575E+02  0.00000000000E+00 0. -1.
         11    1    3    3    0    0  0.37203097298E+01 -0.34177480721E+01 -0.72605140152E+01  0.88451551934E+01  0.51100000000E-03 0. -1.
        -11    1    3    3    0    0  0.19639900522E+02 -0.19487306173E+02  0.87317333176E+01  0.29012479408E+02  0.51100000000E-03 0.  1.
         12    1    3    3    0    0  0.96736711382E+01  0.12152768029E+01  0.80934002451E+01  0.12671224823E+02  0.00000000000E+00 0. -1.
</event>
<event>
 7    1  0.5972636E-013  0.5052885E+02  0.7816164E-02  0.1300439E+00
        -11   -1    0    0    0    0  0.00000000000E+00  0.00000000000E+00  0.45593999997E+02  0.45594000000E+02  0.51100000000E-03 0.  1.
         11   -1    0    0    0    0 -0.00000000000E+00 -0.00000000000E+00 -0.45593999997E+02  0.45594000000E+02  0.51100000000E-03 0. -1.
    9900012    2    1    2    0    0  0.12550778335E+02 -0.16499522122E+02  0.34977286944E+02  0.50528845201E+02  0.29999955472E+02 0.  0.
         12    1    1    2    0    0 -0.12550778335E+02  0.16499522122E+02 -0.34977286944E+02  0.40659154799E+02  0.00000000000E+00 0. -1.
         11    1    3    3    0    0  0.22096513115E+01  0.75421944087E+01  0.77295118519E+01  0.11023275790E+02  0.51100000000E-03 0. -1.
        -11    1    3    3    0    0  0.95982269457E+01 -0.13499007432E+02  0.22449366780E+02  0.27898444961E+02  0.51100000000E-03 0.  1.
         12    1    3    3    0    0  0.74290007743E+00 -0.10542709099E+02  0.47984083122E+01  0.11607124450E+02  0.00000000000E+00 0. -1.
</event>
<event>
 7    1  0.5972636E-013  0.5052886E+02  0.7816164E-02  0.1300439E+00
        -11   -1    0    0    0    0  0.00000000000E+00  0.00000000000E+00  0.45593999997E+02  0.45594000000E+02  0.51100000000E-03 0. -1.
         11   -1    0    0    0    0 -0.00000000000E+00 -0.00000000000E+00 -0.45593999997E+02  0.45594000000E+02  0.51100000000E-03 0.  1.
    9900012    2    1    2    0    0  0.14390618034E+02 -0.14715293807E+02 -0.35064744119E+02  0.50528855403E+02  0.29999986483E+02 0.  0.
         12    1    1    2    0    0 -0.14390618034E+02  0.14715293807E+02  0.35064744119E+02  0.40659144597E+02  0.00000000000E+00 0. -1.
         11    1    3    3    0    0 -0.46001619671E+01 -0.20826115348E+01 -0.11154570235E+01  0.51713639942E+01  0.51100000000E-03 0. -1.
        -11    1    3    3    0    0  0.11082328555E+02 -0.17239646430E+02 -0.19735919533E+02  0.28452239548E+02  0.51100000000E-03 0.  1.
         12    1    3    3    0    0  0.79084514461E+01  0.46069641572E+01 -0.14213367562E+02  0.16905251861E+02  0.00000000000E+00 0. -1.
</event>
<event>
 7    1  0.5972636E-013  0.5052886E+02  0.7816164E-02  0.1300439E+00
        -11   -1    0    0    0    0  0.00000000000E+00  0.00000000000E+00  0.45593999997E+02  0.45594000000E+02  0.51100000000E-03 0. -1.
         11   -1    0    0    0    0 -0.00000000000E+00 -0.00000000000E+00 -0.45593999997E+02  0.45594000000E+02  0.51100000000E-03 0.  1.
    9900012    2    1    2    0    0 -0.36389283068E+02  0.14337125897E+02 -0.11110024476E+02  0.50528859022E+02  0.29999997484E+02 0.  0.
         12    1    1    2    0    0  0.36389283068E+02 -0.14337125897E+02  0.11110024476E+02  0.40659140978E+02  0.00000000000E+00 0. -1.
         11    1    3    3    0    0 -0.16199342871E+01  0.44570315121E+01 -0.16790322972E+01  0.50307521019E+01  0.51100000000E-03 0. -1.
        -11    1    3    3    0    0 -0.26977082253E+02  0.14008283724E+01 -0.16813908570E+02  0.31818749326E+02  0.51100000000E-03 0.  1.
        -12    1    3    3    0    0 -0.77922665279E+01  0.84792660121E+01  0.73829163913E+01  0.13679357594E+02  0.00000000000E+00 0.  1.
</event>
<event>
 7    1  0.5972636E-013  0.5052884E+02  0.7816164E-02  0.1300439E+00
        -11   -1    0    0    0    0  0.00000000000E+00  0.00000000000E+00  0.45593999997E+02  0.45594000000E+02  0.51100000000E-03 0.  1.
         11   -1    0    0    0    0 -0.00000000000E+00 -0.00000000000E+00 -0.45593999997E+02  0.45594000000E+02  0.51100000000E-03 0. -1.
    9900012    2    1    2    0    0 -0.26160502032E+02  0.36252933798E+01  0.30913628321E+02  0.50528843164E+02  0.29999949280E+02 0.  0.
         12    1    1    2    0    0  0.26160502032E+02 -0.36252933798E+01 -0.30913628321E+02  0.40659156836E+02  0.00000000000E+00 0. -1.
         11    1    3    3    0    0  0.36287177415E+01  0.28418255405E+01  0.10849162708E+02  0.11787616238E+02  0.51100000000E-03 0. -1.
        -11    1    3    3    0    0 -0.14211392450E+02 -0.58647840143E+01  0.52690292681E+01  0.16251831792E+02  0.51100000000E-03 0.  1.
        -12    1    3    3    0    0 -0.15577827323E+02  0.66482518536E+01  0.14795436345E+02  0.22489395133E+02  0.00000000000E+00 0.  1.
</event>
<event>
 7    1  0.5972636E-013  0.5052885E+02  0.7816164E-02  0.1300439E+00
        -11   -1    0    0    0    0  0.00000000000E+00  0.00000000000E+00  0.45593999997E+02  0.45594000000E+02  0.51100000000E-03 0.  1.
         11   -1    0    0    0    0 -0.00000000000E+00 -0.00000000000E+00 -0.45593999997E+02  0.45594000000E+02  0.51100000000E-03 0. -1.
    9900012    2    1    2    0    0 -0.63888521268E+01 -0.24055631703E+02  0.32150824442E+02  0.50528851454E+02  0.29999974480E+02 0.  0.
         12    1    1    2    0    0  0.63888521268E+01  0.24055631703E+02 -0.32150824442E+02  0.40659148546E+02  0.00000000000E+00 0. -1.
         11    1    3    3    0    0  0.84153156066E+00  0.17307541849E+01  0.48212854663E+01  0.51911924665E+01  0.51100000000E-03 0. -1.
        -11    1    3    3    0    0 -0.23553534944E+01 -0.21424357107E+02  0.31061016866E+02  0.37806580598E+02  0.51100000000E-03 0.  1.
        -12    1    3    3    0    0 -0.48750301930E+01 -0.43620287809E+01 -0.37314778896E+01  0.75310783895E+01  0.00000000000E+00 0.  1.
</event>
<event>
 7    1  0.5972636E-013  0.5052886E+02  0.7816164E-02  0.1300439E+00
        -11   -1    0    0    0    0  0.00000000000E+00  0.00000000000E+00  0.45593999997E+02  0.45594000000E+02  0.51100000000E-03 0.  1.
         11   -1    0    0    0    0 -0.00000000000E+00 -0.00000000000E+00 -0.45593999997E+02  0.45594000000E+02  0.51100000000E-03 0. -1.
    9900012    2    1    2    0    0 -0.44107646061E+01 -0.39822691799E+02  0.69183823207E+01  0.50528860309E+02  0.30000001394E+02 0.  0.
         12    1    1    2    0    0  0.44107646061E+01  0.39822691799E+02 -0.69183823207E+01  0.40659139691E+02  0.00000000000E+00 0. -1.
         11    1    3    3    0    0  0.48254295862E+01 -0.12377763307E+01 -0.92788530669E+00  0.50673299024E+01  0.51100000000E-03 0. -1.
        -11    1    3    3    0    0 -0.48326017723E+01 -0.39892158773E+02  0.71706656750E+01  0.40818584223E+02  0.51100000000E-03 0.  1.
        -12    1    3    3    0    0 -0.44035924200E+01  0.13072433054E+01  0.67560195238E+00  0.46429461831E+01  0.00000000000E+00 0.  1.
</event>
<event>
 7    1  0.5972636E-013  0.5052885E+02  0.7816164E-02  0.1300439E+00
        -11   -1    0    0    0    0  0.00000000000E+00  0.00000000000E+00  0.45593999997E+02  0.45594000000E+02  0.51100000000E-03 0.  1.
         11   -1    0    0    0    0 -0.00000000000E+00 -0.00000000000E+00 -0.45593999997E+02  0.45594000000E+02  0.51100000000E-03 0. -1.
    9900012    2    1    2    0    0 -0.13374301807E+02  0.33236019725E+02  0.19226591841E+02  0.50528846174E+02  0.29999958432E+02 0.  0.
         12    1    1    2    0    0  0.13374301807E+02 -0.33236019725E+02 -0.19226591841E+02  0.40659153826E+02  0.00000000000E+00 0. -1.
         11    1    3    3    0    0 -0.50781805824E+01 -0.98715246639E-01  0.15989464416E+01  0.53248749010E+01  0.51100000000E-03 0. -1.
        -11    1    3    3    0    0  0.52740745659E+00  0.14987363684E+02 -0.39802957725E+01  0.15515862320E+02  0.51100000000E-03 0.  1.
        -12    1    3    3    0    0 -0.88235286812E+01  0.18347371288E+02  0.21607941172E+02  0.29688108954E+02  0.00000000000E+00 0.  1.
</event>
<event>
 7    1  0.5972636E-013  0.5052886E+02  0.7816164E-02  0.1300439E+00
        -11   -1    0    0    0    0  0.00000000000E+00  0.00000000000E+00  0.45593999997E+02  0.45594000000E+02  0.51100000000E-03 0. -1.
         11   -1    0    0    0    0 -0.00000000000E+00 -0.00000000000E+00 -0.45593999997E+02  0.45594000000E+02  0.51100000000E-03 0.  1.
    9900012    2    1    2    0    0  0.21016364706E+01 -0.38256620823E+02  0.13608082496E+02  0.50528858078E+02  0.29999994614E+02 0.  0.
         12    1    1    2    0    0 -0.21016364706E+01  0.38256620823E+02 -0.13608082496E+02  0.40659141922E+02  0.00000000000E+00 0. -1.
         11    1    3    3    0    0  0.46501637946E+00 -0.24885007406E+01  0.12069116632E+02  0.12331766002E+02  0.51100000000E-03 0. -1.
        -11    1    3    3    0    0  0.10551934020E+01 -0.29523610603E+02  0.64417405695E+01  0.30236617502E+02  0.51100000000E-03 0.  1.
        -12    1    3    3    0    0  0.58142668916E+00 -0.62445094789E+01 -0.49027747062E+01  0.79604745742E+01  0.00000000000E+00 0.  1.
</event>
<event>
 7    1  0.5972636E-013  0.5052886E+02  0.7816164E-02  0.1300439E+00
        -11   -1    0    0    0    0  0.00000000000E+00  0.00000000000E+00  0.45593999997E+02  0.45594000000E+02  0.51100000000E-03 0.  1.
         11   -1    0    0    0    0 -0.00000000000E+00 -0.00000000000E+00 -0.45593999997E+02  0.45594000000E+02  0.51100000000E-03 0. -1.
    9900012    2    1    2    0    0 -0.34595429651E+02  0.20559647380E+02 -0.57984952716E+01  0.50528863259E+02  0.30000010362E+02 0.  0.
         12    1    1    2    0    0  0.34595429651E+02 -0.20559647380E+02  0.57984952716E+01  0.40659136741E+02  0.00000000000E+00 0. -1.
         11    1    3    3    0    0 -0.34020112396E+01  0.14687865399E+02 -0.46737524296E+01  0.15784518760E+02  0.51100000000E-03 0. -1.
        -11    1    3    3    0    0 -0.13812897583E+02  0.43291551249E+01 -0.73293288439E+01  0.16225189839E+02  0.51100000000E-03 0.  1.
         12    1    3    3    0    0 -0.17380520828E+02  0.15426268561E+01  0.62045860019E+01  0.18519154660E+02  0.00000000000E+00 0. -1.
</event>
<event>
 7    1  0.5972636E-013  0.5052885E+02  0.7816164E-02  0.1300439E+00
        -11   -1    0    0    0    0  0.00000000000E+00  0.00000000000E+00  0.45593999997E+02  0.45594000000E+02  0.51100000000E-03 0.  1.
         11   -1    0    0    0    0 -0.00000000000E+00 -0.00000000000E+00 -0.45593999997E+02  0.45594000000E+02  0.51100000000E-03 0. -1.
    9900012    2    1    2    0    0  0.25738983032E+02  0.31200602201E+02  0.41465053112E+01  0.50528851810E+02  0.29999975561E+02 0.  0.
         12    1    1    2    0    0 -0.25738983032E+02 -0.31200602201E+02 -0.41465053112E+01  0.40659148190E+02  0.00000000000E+00 0. -1.
         11    1    3    3    0    0  0.28792256107E+01  0.11577300963E+01 -0.38890256629E+01  0.49754195764E+01  0.51100000000E-03 0. -1.
        -11    1    3    3    0    0  0.19678536799E+02  0.12720671126E+02  0.13588278859E+02  0.27086926866E+02  0.51100000000E-03 0.  1.
        -12    1    3    3    0    0  0.31812206226E+01  0.17322200979E+02 -0.55527478851E+01  0.18466505367E+02  0.00000000000E+00 0.  1.
</event>
<event>
 7    1  0.5972636E-013  0.5052900E+02  0.7816164E-02  0.1300438E+00
        -11   -1    0    0    0    0  0.00000000000E+00  0.00000000000E+00  0.45593999997E+02  0.45594000000E+02  0.51100000000E-03 0.  1.
         11   -1    0    0    0    0 -0.00000000000E+00 -0.00000000000E+00 -0.45593999997E+02  0.45594000000E+02  0.51100000000E-03 0. -1.
    9900012    2    1    2    0    0  0.21710299361E+02  0.48302322038E+01  0.34036539929E+02  0.50528999867E+02  0.30000425593E+02 0.  0.
         12    1    1    2    0    0 -0.21710299361E+02 -0.48302322038E+01 -0.34036539929E+02  0.40659000133E+02  0.00000000000E+00 0. -1.
         11    1    3    3    0    0  0.19790456750E+02 -0.36107793795E+01  0.97745615597E+01  0.22366089512E+02  0.51100000000E-03 0.  1.
        -11    1    3    3    0    0 -0.21709898580E+00  0.70957402163E+01  0.24610421881E+02  0.25613854193E+02  0.51100000000E-03 0. -1.
         12    1    3    3    0    0  0.21369415969E+01  0.13452713669E+01 -0.34844351200E+00  0.25490561626E+01  0.00000000000E+00 0. -1.
</event>
<event>
 7    1  0.5972636E-013  0.5052887E+02  0.7816164E-02  0.1300439E+00
        -11   -1    0    0    0    0  0.00000000000E+00  0.00000000000E+00  0.45593999997E+02  0.45594000000E+02  0.51100000000E-03 0.  1.
         11   -1    0    0    0    0 -0.00000000000E+00 -0.00000000000E+00 -0.45593999997E+02  0.45594000000E+02  0.51100000000E-03 0. -1.
    9900012    2    1    2    0    0  0.82733215423E+00  0.10189882822E+02  0.39352848953E+02  0.50528869277E+02  0.30000028656E+02 0.  0.
         12    1    1    2    0    0 -0.82733215423E+00 -0.10189882822E+02 -0.39352848953E+02  0.40659130723E+02  0.00000000000E+00 0. -1.
         11    1    3    3    0    0 -0.12273177522E+02  0.91520180641E+01  0.16794635696E+02  0.22725538708E+02  0.51100000000E-03 0. -1.
        -11    1    3    3    0    0  0.13119000134E+02  0.10051821689E+01  0.23461597809E+02  0.26899165929E+02  0.51100000000E-03 0.  1.
         12    1    3    3    0    0 -0.18490457450E-01  0.32682588889E-01 -0.90338455168E+00  0.90416464034E+00  0.00000000000E+00 0. -1.
</event>
<event>
 7    1  0.5972636E-013  0.5052885E+02  0.7816164E-02  0.1300439E+00
        -11   -1    0    0    0    0  0.00000000000E+00  0.00000000000E+00  0.45593999997E+02  0.45594000000E+02  0.51100000000E-03 0. -1.
         11   -1    0    0    0    0 -0.00000000000E+00 -0.00000000000E+00 -0.45593999997E+02  0.45594000000E+02  0.51100000000E-03 0.  1.
    9900012    2    1    2    0    0 -0.29609908607E+02 -0.23219967979E+02 -0.15403003769E+02  0.50528854341E+02  0.29999983254E+02 0.  0.
         12    1    1    2    0    0  0.29609908607E+02  0.23219967979E+02  0.15403003769E+02  0.40659145659E+02  0.00000000000E+00 0. -1.
         11    1    3    3    0    0 -0.11458926714E+02  0.10899707078E+01 -0.10369064991E+02  0.15492338320E+02  0.51100000000E-03 0. -1.
        -11    1    3    3    0    0 -0.59476711338E+01 -0.13083407649E+02  0.55037586371E+01  0.15389662343E+02  0.51100000000E-03 0.  1.
        -12    1    3    3    0    0 -0.12203310759E+02 -0.11226531037E+02 -0.10537697416E+02  0.19646853678E+02  0.00000000000E+00 0.  1.
</event>
<event>
 7    1  0.5972636E-013  0.5052886E+02  0.7816164E-02  0.1300439E+00
        -11   -1    0    0    0    0  0.00000000000E+00  0.00000000000E+00  0.45593999997E+02  0.45594000000E+02  0.51100000000E-03 0.  1.
         11   -1    0    0    0    0 -0.00000000000E+00 -0.00000000000E+00 -0.45593999997E+02  0.45594000000E+02  0.51100000000E-03 0. -1.
    9900012    2    1    2    0    0  0.14790372643E+02 -0.67083857701E+01  0.37274765830E+02  0.50528859204E+02  0.29999998037E+02 0.  0.
         12    1    1    2    0    0 -0.14790372643E+02  0.67083857701E+01 -0.37274765830E+02  0.40659140796E+02  0.00000000000E+00 0. -1.
         11    1    3    3    0    0  0.36575201030E+01  0.11039790938E+01  0.21684917665E+02  0.22018898191E+02  0.51100000000E-03 0.  1.
        -11    1    3    3    0    0  0.57934516852E+01 -0.74522357413E+01 -0.24011660294E+01  0.97398921213E+01  0.51100000000E-03 0. -1.
         12    1    3    3    0    0  0.53394008553E+01 -0.36012912255E+00  0.17991014194E+02  0.18770068892E+02  0.00000000000E+00 0. -1.
</event>
<event>
 7    1  0.5972636E-013  0.5052885E+02  0.7816164E-02  0.1300439E+00
        -11   -1    0    0    0    0  0.00000000000E+00  0.00000000000E+00  0.45593999997E+02  0.45594000000E+02  0.51100000000E-03 0.  1.
         11   -1    0    0    0    0 -0.00000000000E+00 -0.00000000000E+00 -0.45593999997E+02  0.45594000000E+02  0.51100000000E-03 0. -1.
    9900012    2    1    2    0    0 -0.11702915730E+02 -0.28730050649E+02  0.26282928995E+02  0.50528850926E+02  0.29999972875E+02 0.  0.
         12    1    1    2    0    0  0.11702915730E+02  0.28730050649E+02 -0.26282928995E+02  0.40659149074E+02  0.00000000000E+00 0. -1.
         11    1    3    3    0    0 -0.98051770230E+01 -0.16840688281E+02 -0.21550937107E+01  0.19605986520E+02  0.51100000000E-03 0. -1.
        -11    1    3    3    0    0 -0.88162679023E+00 -0.32668647645E+01  0.64703899722E+01  0.73017544358E+01  0.51100000000E-03 0.  1.
         12    1    3    3    0    0 -0.10161119167E+01 -0.86224976034E+01  0.21967632733E+02  0.23621109971E+02  0.00000000000E+00 0. -1.
</event>
<event>
 7    1  0.5972636E-013  0.5052886E+02  0.7816164E-02  0.1300439E+00
        -11   -1    0    0    0    0  0.00000000000E+00  0.00000000000E+00  0.45593999997E+02  0.45594000000E+02  0.51100000000E-03 0.  1.
         11   -1    0    0    0    0 -0.00000000000E+00 -0.00000000000E+00 -0.45593999997E+02  0.45594000000E+02  0.51100000000E-03 0. -1.
    9900012    2    1    2    0    0 -0.10273697763E+02 -0.37602298844E+02  0.11562175050E+02  0.50528860364E+02  0.30000001562E+02 0.  0.
         12    1    1    2    0    0  0.10273697763E+02  0.37602298844E+02 -0.11562175050E+02  0.40659139636E+02  0.00000000000E+00 0. -1.
         11    1    3    3    0    0  0.75179529449E+00 -0.92108076559E+01 -0.25508142014E+00  0.92449575787E+01  0.51100000000E-03 0. -1.
        -11    1    3    3    0    0 -0.17628851764E+02 -0.25787747288E+02  0.13434287058E+02  0.34003887921E+02  0.51100000000E-03 0.  1.
        -12    1    3    3    0    0  0.66033587065E+01 -0.26037438996E+01 -0.16170305886E+01  0.72800148644E+01  0.00000000000E+00 0.  1.
</event>
<event>
 7    1  0.5972636E-013  0.5052892E+02  0.7816164E-02  0.1300439E+00
        -11   -1    0    0    0    0  0.00000000000E+00  0.00000000000E+00  0.45593999997E+02  0.45594000000E+02  0.51100000000E-03 0.  1.
         11   -1    0    0    0    0 -0.00000000000E+00 -0.00000000000E+00 -0.45593999997E+02  0.45594000000E+02  0.51100000000E-03 0. -1.
    9900012    2    1    2    0    0  0.22128290702E+02 -0.32716357815E+02  0.96508685846E+01  0.50528922508E+02  0.30000190453E+02 0.  0.
         12    1    1    2    0    0 -0.22128290702E+02  0.32716357815E+02 -0.96508685846E+01  0.40659077492E+02  0.00000000000E+00 0. -1.
         11    1    3    3    0    0  0.11746172003E+02  0.25802808231E+01  0.59064225100E+01  0.13398366802E+02  0.51100000000E-03 0. -1.
        -11    1    3    3    0    0  0.13880368572E+01 -0.81490559846E+01  0.18386898482E+01  0.84684437990E+01  0.51100000000E-03 0.  1.
         12    1    3    3    0    0  0.89940818420E+01 -0.27147582654E+02  0.19057562264E+01  0.28662111906E+02  0.00000000000E+00 0. -1.
</event>
<event>
 7    1  0.5972636E-013  0.5052887E+02  0.7816164E-02  0.1300439E+00
        -11   -1    0    0    0    0  0.00000000000E+00  0.00000000000E+00  0.45593999997E+02  0.45594000000E+02  0.51100000000E-03 0.  1.
         11   -1    0    0    0    0 -0.00000000000E+00 -0.00000000000E+00 -0.45593999997E+02  0.45594000000E+02  0.51100000000E-03 0. -1.
    9900012    2    1    2    0    0 -0.29148865886E+02  0.15749295069E+02  0.23568369283E+02  0.50528871772E+02  0.30000036237E+02 0.  0.
         12    1    1    2    0    0  0.29148865886E+02 -0.15749295069E+02 -0.23568369283E+02  0.40659128228E+02  0.00000000000E+00 0. -1.
         11    1    3    3    0    0  0.57443110540E+00 -0.29416783530E+01 -0.37158866453E+01  0.47740188991E+01  0.51100000000E-03 0. -1.
        -11    1    3    3    0    0 -0.20675820858E+02  0.12383527122E+02  0.12044156739E+02  0.26942587551E+02  0.51100000000E-03 0.  1.
        -12    1    3    3    0    0 -0.90474761339E+01  0.63074462997E+01  0.15240099190E+02  0.18812265322E+02  0.00000000000E+00 0.  1.
</event>
<event>
 7    1  0.5972636E-013  0.5052887E+02  0.7816164E-02  0.1300439E+00
        -11   -1    0    0    0    0  0.00000000000E+00  0.00000000000E+00  0.45593999997E+02  0.45594000000E+02  0.51100000000E-03 0.  1.
         11   -1    0    0    0    0 -0.00000000000E+00 -0.00000000000E+00 -0.45593999997E+02  0.45594000000E+02  0.51100000000E-03 0. -1.
    9900012    2    1    2    0    0 -0.27513300040E+02  0.65782844896E+01  0.29204615516E+02  0.50528867282E+02  0.30000022592E+02 0.  0.
         12    1    1    2    0    0  0.27513300040E+02 -0.65782844896E+01 -0.29204615516E+02  0.40659132718E+02  0.00000000000E+00 0. -1.
         11    1    3    3    0    0 -0.13292224090E+02 -0.62501586369E+01  0.24128548426E+02  0.28247735372E+02  0.51100000000E-03 0.  1.
        -11    1    3    3    0    0 -0.15312349904E+02  0.91376541969E+01  0.44884288149E+01  0.18387788809E+02  0.51100000000E-03 0. -1.
        -12    1    3    3    0    0  0.10912739537E+01  0.36907889296E+01  0.58763827500E+00  0.38933431016E+01  0.00000000000E+00 0.  1.
</event>
<event>
 7    1  0.5972636E-013  0.5052886E+02  0.7816164E-02  0.1300439E+00
        -11   -1    0    0    0    0  0.00000000000E+00  0.00000000000E+00  0.45593999997E+02  0.45594000000E+02  0.51100000000E-03 0.  1.
         11   -1    0    0    0    0 -0.00000000000E+00 -0.00000000000E+00 -0.45593999997E+02  0.45594000000E+02  0.51100000000E-03 0. -1.
    9900012    2    1    2    0    0 -0.17141362279E+02  0.34827154969E+02  0.12099948778E+02  0.50528858537E+02  0.29999996010E+02 0.  0.
         12    1    1    2    0    0  0.17141362279E+02 -0.34827154969E+02 -0.12099948778E+02  0.40659141463E+02  0.00000000000E+00 0. -1.
         11    1    3    3    0    0 -0.70254949139E+01  0.57794223205E+01 -0.81678902266E+01  0.12225945042E+02  0.51100000000E-03 0. -1.
        -11    1    3    3    0    0 -0.71105926840E+01  0.10630086509E+02  0.36108880519E+01  0.13289009756E+02  0.51100000000E-03 0.  1.
         12    1    3    3    0    0 -0.30052746812E+01  0.18417646140E+02  0.16656950953E+02  0.25013903740E+02  0.00000000000E+00 0. -1.
</event>
<event>
 7    1  0.5972636E-013  0.5052886E+02  0.7816164E-02  0.1300439E+00
        -11   -1    0    0    0    0  0.00000000000E+00  0.00000000000E+00  0.45593999997E+02  0.45594000000E+02  0.51100000000E-03 0.  1.
         11   -1    0    0    0    0 -0.00000000000E+00 -0.00000000000E+00 -0.45593999997E+02  0.45594000000E+02  0.51100000000E-03 0. -1.
    9900012    2    1    2    0    0  0.26755880270E+02 -0.83592341669E+01  0.29451856493E+02  0.50528858645E+02  0.29999996337E+02 0.  0.
         12    1    1    2    0    0 -0.26755880270E+02  0.83592341669E+01 -0.29451856493E+02  0.40659141355E+02  0.00000000000E+00 0. -1.
         11    1    3    3    0    0  0.19245935519E+01  0.61592013266E+01  0.14409326828E+01  0.66118158307E+01  0.51100000000E-03 0. -1.
        -11    1    3    3    0    0  0.21143932367E+02 -0.17924579480E+02  0.27193816011E+02  0.38831173752E+02  0.51100000000E-03 0.  1.
        -12    1    3    3    0    0  0.36873543508E+01  0.34061439864E+01  0.81710779932E+00  0.50858690624E+01  0.00000000000E+00 0.  1.
</event>
<event>
 7    1  0.5972636E-013  0.5052886E+02  0.7816164E-02  0.1300439E+00
        -11   -1    0    0    0    0  0.00000000000E+00  0.00000000000E+00  0.45593999997E+02  0.45594000000E+02  0.51100000000E-03 0.  1.
         11   -1    0    0    0    0 -0.00000000000E+00 -0.00000000000E+00 -0.45593999997E+02  0.45594000000E+02  0.51100000000E-03 0. -1.
    9900012    2    1    2    0    0  0.23079272665E+01 -0.40131467973E+02 -0.61077289104E+01  0.50528860777E+02  0.30000002817E+02 0.  0.
         12    1    1    2    0    0 -0.23079272665E+01  0.40131467973E+02  0.61077289104E+01  0.40659139223E+02  0.00000000000E+00 0. -1.
         11    1    3    3    0    0 -0.61203338166E+01 -0.21326146358E+02 -0.10130402923E+02  0.24390327348E+02  0.51100000000E-03 0. -1.
        -11    1    3    3    0    0 -0.22639607554E+01 -0.56434738252E+01  0.66137283150E+01  0.89841926517E+01  0.51100000000E-03 0.  1.
         12    1    3    3    0    0  0.10692221839E+02 -0.13161847790E+02 -0.25910543025E+01  0.17154340777E+02  0.00000000000E+00 0. -1.
</event>
<event>
 7    1  0.5972636E-013  0.5052886E+02  0.7816164E-02  0.1300439E+00
        -11   -1    0    0    0    0  0.00000000000E+00  0.00000000000E+00  0.45593999997E+02  0.45594000000E+02  0.51100000000E-03 0.  1.
         11   -1    0    0    0    0 -0.00000000000E+00 -0.00000000000E+00 -0.45593999997E+02  0.45594000000E+02  0.51100000000E-03 0. -1.
    9900012    2    1    2    0    0  0.19977262380E+02 -0.14504756949E+02  0.32306142957E+02  0.50528857620E+02  0.29999993221E+02 0.  0.
         12    1    1    2    0    0 -0.19977262380E+02  0.14504756949E+02 -0.32306142957E+02  0.40659142380E+02  0.00000000000E+00 0. -1.
         11    1    3    3    0    0  0.40261509962E+00 -0.14741529153E+02  0.69655909532E+01  0.16309329792E+02  0.51100000000E-03 0. -1.
        -11    1    3    3    0    0  0.16990313130E+02 -0.45025826107E+01  0.19999820206E+02  0.26625867103E+02  0.51100000000E-03 0.  1.
         12    1    3    3    0    0  0.25843341499E+01  0.47393548153E+01  0.53407317979E+01  0.75936607246E+01  0.00000000000E+00 0. -1.
</event>
<event>
 7    1  0.5972636E-013  0.5052882E+02  0.7816164E-02  0.1300439E+00
        -11   -1    0    0    0    0  0.00000000000E+00  0.00000000000E+00  0.45593999997E+02  0.45594000000E+02  0.51100000000E-03 0.  1.
         11   -1    0    0    0    0 -0.00000000000E+00 -0.00000000000E+00 -0.45593999997E+02  0.45594000000E+02  0.51100000000E-03 0. -1.
    9900012    2    1    2    0    0  0.35285190715E+02 -0.18981520274E+02  0.69156294504E+01  0.50528822360E+02  0.29999886045E+02 0.  0.
         12    1    1    2    0    0 -0.35285190715E+02  0.18981520274E+02 -0.69156294504E+01  0.40659177640E+02  0.00000000000E+00 0. -1.
         11    1    3    3    0    0  0.20012578973E+02 -0.21689026304E+02  0.10256840623E+02  0.31242918541E+02  0.51100000000E-03 0. -1.
        -11    1    3    3    0    0  0.16052887579E+02  0.36247493561E+01 -0.80311946361E+00  0.16476620062E+02  0.51100000000E-03 0.  1.
         12    1    3    3    0    0 -0.78027583730E+00 -0.91724332565E+00 -0.25380917093E+01  0.28092837567E+01  0.00000000000E+00 0. -1.
</event>
<event>
 7    1  0.5972636E-013  0.5052887E+02  0.7816164E-02  0.1300439E+00
        -11   -1    0    0    0    0  0.00000000000E+00  0.00000000000E+00  0.45593999997E+02  0.45594000000E+02  0.51100000000E-03 0.  1.
         11   -1    0    0    0    0 -0.00000000000E+00 -0.00000000000E+00 -0.45593999997E+02  0.45594000000E+02  0.51100000000E-03 0. -1.
    9900012    2    1    2    0    0  0.18311814361E+02  0.26239583470E+02  0.25086386430E+02  0.50528867323E+02  0.30000022716E+02 0.  0.
         12    1    1    2    0    0 -0.18311814361E+02 -0.26239583470E+02 -0.25086386430E+02  0.40659132677E+02  0.00000000000E+00 0. -1.
         11    1    3    3    0    0  0.49852600653E+00  0.15747052750E+02  0.76539349502E+00  0.15773522941E+02  0.51100000000E-03 0. -1.
        -11    1    3    3    0    0  0.18240884228E+02  0.12922913815E+02  0.21680157055E+02  0.31140982147E+02  0.51100000000E-03 0.  1.
         12    1    3    3    0    0 -0.42759587304E+00 -0.24303830954E+01  0.26408358809E+01  0.36143622357E+01  0.00000000000E+00 0. -1.
</event>
<event>
 7    1  0.5972636E-013  0.5052886E+02  0.7816164E-02  0.1300439E+00
        -11   -1    0    0    0    0  0.00000000000E+00  0.00000000000E+00  0.45593999997E+02  0.45594000000E+02  0.51100000000E-03 0.  1.
         11   -1    0    0    0    0 -0.00000000000E+00 -0.00000000000E+00 -0.45593999997E+02  0.45594000000E+02  0.51100000000E-03 0. -1.
    9900012    2    1    2    0    0  0.10486862604E+02 -0.26004551222E+02  0.29444101103E+02  0.50528855133E+02  0.29999985662E+02 0.  0.
         12    1    1    2    0    0 -0.10486862604E+02  0.26004551222E+02 -0.29444101103E+02  0.40659144867E+02  0.00000000000E+00 0. -1.
         11    1    3    3    0    0  0.50930338176E+01 -0.20765489849E+01 -0.46339588811E+01  0.71919833374E+01  0.51100000000E-03 0. -1.
        -11    1    3    3    0    0 -0.18258149350E+00 -0.19804981293E+02  0.26144202705E+02  0.32799237116E+02  0.51100000000E-03 0.  1.
         12    1    3    3    0    0  0.55764102803E+01 -0.41230209440E+01  0.79338572794E+01  0.10537634680E+02  0.00000000000E+00 0. -1.
</event>
<event>
 7    1  0.5972636E-013  0.5052893E+02  0.7816164E-02  0.1300439E+00
        -11   -1    0    0    0    0  0.00000000000E+00  0.00000000000E+00  0.45593999997E+02  0.45594000000E+02  0.51100000000E-03 0.  1.
         11   -1    0    0    0    0 -0.00000000000E+00 -0.00000000000E+00 -0.45593999997E+02  0.45594000000E+02  0.51100000000E-03 0. -1.
    9900012    2    1    2    0    0  0.37099613074E+02  0.99965725458E+01  0.13298388001E+02  0.50528931192E+02  0.30000216851E+02 0.  0.
         12    1    1    2    0    0 -0.37099613074E+02 -0.99965725458E+01 -0.13298388001E+02  0.40659068808E+02  0.00000000000E+00 0. -1.
         11    1    3    3    0    0 -0.21754707956E+01  0.11783941462E+01  0.75972264508E+01  0.79899396714E+01  0.51100000000E-03 0. -1.
        -11    1    3    3    0    0  0.20337009395E+02  0.34456937835E+01 -0.33072533661E+01  0.20890301143E+02  0.51100000000E-03 0.  1.
         12    1    3    3    0    0  0.18938074475E+02  0.53724846161E+01  0.90084149167E+01  0.21648690378E+02  0.00000000000E+00 0. -1.
</event>
<event>
 7    1  0.5972636E-013  0.5052885E+02  0.7816164E-02  0.1300439E+00
        -11   -1    0    0    0    0  0.00000000000E+00  0.00000000000E+00  0.45593999997E+02  0.45594000000E+02  0.51100000000E-03 0.  1.
         11   -1    0    0    0    0 -0.00000000000E+00 -0.00000000000E+00 -0.45593999997E+02  0.45594000000E+02  0.51100000000E-03 0. -1.
    9900012    2    1    2    0    0  0.70621082526E+01 -0.39919109011E+02  0.31238099298E+01  0.50528845733E+02  0.29999957090E+02 0.  0.
         12    1    1    2    0    0 -0.70621082526E+01  0.39919109011E+02 -0.31238099298E+01  0.40659154267E+02  0.00000000000E+00 0. -1.
         11    1    3    3    0    0  0.33729906119E+01  0.51526949956E+00  0.60504515696E+01  0.69462603451E+01  0.51100000000E-03 0. -1.
        -11    1    3    3    0    0 -0.33014521008E+01 -0.31608957093E+02  0.59369185889E+00  0.31786447187E+02  0.51100000000E-03 0.  1.
        -12    1    3    3    0    0  0.69905697416E+01 -0.88254214182E+01 -0.35203334987E+01  0.11796138201E+02  0.00000000000E+00 0.  1.
</event>
<event>
 7    1  0.5972636E-013  0.5052886E+02  0.7816164E-02  0.1300439E+00
        -11   -1    0    0    0    0  0.00000000000E+00  0.00000000000E+00  0.45593999997E+02  0.45594000000E+02  0.51100000000E-03 0.  1.
         11   -1    0    0    0    0 -0.00000000000E+00 -0.00000000000E+00 -0.45593999997E+02  0.45594000000E+02  0.51100000000E-03 0. -1.
    9900012    2    1    2    0    0  0.10185477139E+02 -0.28255209521E+02  0.27405562232E+02  0.50528860181E+02  0.30000001005E+02 0.  0.
         12    1    1    2    0    0 -0.10185477139E+02  0.28255209521E+02 -0.27405562232E+02  0.40659139819E+02  0.00000000000E+00 0. -1.
         11    1    3    3    0    0 -0.14779113192E+00 -0.24226480772E+02  0.30261028780E+02  0.38764340261E+02  0.51100000000E-03 0. -1.
        -11    1    3    3    0    0  0.72505725334E+01 -0.40261653182E+01 -0.16586812864E+01  0.84576612076E+01  0.51100000000E-03 0.  1.
        -12    1    3    3    0    0  0.30826957372E+01 -0.25634311781E-02 -0.11967852616E+01  0.33068587121E+01  0.00000000000E+00 0.  1.
</event>
<event>
 7    1  0.5972636E-013  0.5052886E+02  0.7816164E-02  0.1300439E+00
        -11   -1    0    0    0    0  0.00000000000E+00  0.00000000000E+00  0.45593999997E+02  0.45594000000E+02  0.51100000000E-03 0. -1.
         11   -1    0    0    0    0 -0.00000000000E+00 -0.00000000000E+00 -0.45593999997E+02  0.45594000000E+02  0.51100000000E-03 0.  1.
    9900012    2    1    2    0    0 -0.76388709483E+01 -0.26621644542E+02 -0.29767451810E+02  0.50528862101E+02  0.30000006841E+02 0.  0.
         12    1    1    2    0    0  0.76388709483E+01  0.26621644542E+02  0.29767451810E+02  0.40659137899E+02  0.00000000000E+00 0. -1.
         11    1    3    3    0    0 -0.73936734384E+01  0.60647354840E+00  0.34789380156E+00  0.74266578915E+01  0.51100000000E-03 0. -1.
        -11    1    3    3    0    0 -0.29305670460E-01 -0.15254524870E+02 -0.26527406742E+02  0.30600730327E+02  0.51100000000E-03 0.  1.
        -12    1    3    3    0    0 -0.21589183943E+00 -0.11973593220E+02 -0.35879388690E+01  0.12501473882E+02  0.00000000000E+00 0.  1.
</event>
<event>
 7    1  0.5972636E-013  0.5052886E+02  0.7816164E-02  0.1300439E+00
        -11   -1    0    0    0    0  0.00000000000E+00  0.00000000000E+00  0.45593999997E+02  0.45594000000E+02  0.51100000000E-03 0. -1.
         11   -1    0    0    0    0 -0.00000000000E+00 -0.00000000000E+00 -0.45593999997E+02  0.45594000000E+02  0.51100000000E-03 0.  1.
    9900012    2    1    2    0    0 -0.65714988739E+01 -0.17879810982E+02 -0.35920658446E+02  0.50528856608E+02  0.29999990145E+02 0.  0.
         12    1    1    2    0    0  0.65714988739E+01  0.17879810982E+02  0.35920658446E+02  0.40659143392E+02  0.00000000000E+00 0. -1.
         11    1    3    3    0    0 -0.97509712917E+01 -0.18438420543E+02 -0.12424799819E+02  0.24278229837E+02  0.51100000000E-03 0. -1.
        -11    1    3    3    0    0  0.60454778173E+01 -0.29307821853E+01 -0.10244135092E+02  0.12250697543E+02  0.51100000000E-03 0.  1.
         12    1    3    3    0    0 -0.28660053996E+01  0.34893917456E+01 -0.13251723536E+02  0.13999929227E+02  0.00000000000E+00 0. -1.
</event>
<event>
 7    1  0.5972636E-013  0.5052876E+02  0.7816164E-02  0.1300439E+00
        -11   -1    0    0    0    0  0.00000000000E+00  0.00000000000E+00  0.45593999997E+02  0.45594000000E+02  0.51100000000E-03 0.  1.
         11   -1    0    0    0    0 -0.00000000000E+00 -0.00000000000E+00 -0.45593999997E+02  0.45594000000E+02  0.51100000000E-03 0. -1.
    9900012    2    1    2    0    0  0.31094268331E+02  0.24579657492E+02 -0.90642400961E+01  0.50528763239E+02  0.29999706340E+02 0.  0.
         12    1    1    2    0    0 -0.31094268331E+02 -0.24579657492E+02  0.90642400961E+01  0.40659236761E+02  0.00000000000E+00 0. -1.
         11    1    3    3    0    0  0.56198989155E+01  0.19652222599E+02 -0.20185533227E+01  0.20539417584E+02  0.51100000000E-03 0. -1.
        -11    1    3    3    0    0  0.14761739605E+02 -0.38554058328E+01 -0.44794623918E+01  0.15900902297E+02  0.51100000000E-03 0.  1.
        -12    1    3    3    0    0  0.10712629811E+02  0.87828407250E+01 -0.25662243816E+01  0.14088443358E+02  0.00000000000E+00 0.  1.
</event>
<event>
 7    1  0.5972636E-013  0.5052886E+02  0.7816164E-02  0.1300439E+00
        -11   -1    0    0    0    0  0.00000000000E+00  0.00000000000E+00  0.45593999997E+02  0.45594000000E+02  0.51100000000E-03 0.  1.
         11   -1    0    0    0    0 -0.00000000000E+00 -0.00000000000E+00 -0.45593999997E+02  0.45594000000E+02  0.51100000000E-03 0. -1.
    9900012    2    1    2    0    0  0.29910044740E+02 -0.17467948546E+02  0.21293796314E+02  0.50528858787E+02  0.29999996769E+02 0.  0.
         12    1    1    2    0    0 -0.29910044740E+02  0.17467948546E+02 -0.21293796314E+02  0.40659141213E+02  0.00000000000E+00 0. -1.
         11    1    3    3    0    0  0.18806624843E+01  0.27435326811E+01  0.13665124577E+02  0.14064120766E+02  0.51100000000E-03 0. -1.
        -11    1    3    3    0    0  0.84013097215E+01 -0.64339315755E+01 -0.17299954923E+01  0.10722423477E+02  0.51100000000E-03 0.  1.
         12    1    3    3    0    0  0.19628072534E+02 -0.13777549651E+02  0.93586672289E+01  0.25742314544E+02  0.00000000000E+00 0. -1.
</event>
<event>
 7    1  0.5972636E-013  0.5052885E+02  0.7816164E-02  0.1300439E+00
        -11   -1    0    0    0    0  0.00000000000E+00  0.00000000000E+00  0.45593999997E+02  0.45594000000E+02  0.51100000000E-03 0. -1.
         11   -1    0    0    0    0 -0.00000000000E+00 -0.00000000000E+00 -0.45593999997E+02  0.45594000000E+02  0.51100000000E-03 0.  1.
    9900012    2    1    2    0    0  0.95072002174E+01  0.96293697006E+01 -0.38341295754E+02  0.50528848793E+02  0.29999966390E+02 0.  0.
         12    1    1    2    0    0 -0.95072002174E+01 -0.96293697006E+01  0.38341295754E+02  0.40659151207E+02  0.00000000000E+00 0. -1.
         11    1    3    3    0    0  0.11276952548E+02  0.19072554711E+02 -0.30795239988E+02  0.37937828195E+02  0.51100000000E-03 0.  1.
        -11    1    3    3    0    0  0.19755852569E+00 -0.66863884465E+01 -0.51575403961E+01  0.84467178849E+01  0.51100000000E-03 0. -1.
        -12    1    3    3    0    0 -0.19673108564E+01 -0.27567965640E+01 -0.23885153698E+01  0.41443027125E+01  0.00000000000E+00 0.  1.
</event>
<event>
 7    1  0.5972636E-013  0.5052887E+02  0.7816164E-02  0.1300439E+00
        -11   -1    0    0    0    0  0.00000000000E+00  0.00000000000E+00  0.45593999997E+02  0.45594000000E+02  0.51100000000E-03 0. -1.
         11   -1    0    0    0    0 -0.00000000000E+00 -0.00000000000E+00 -0.45593999997E+02  0.45594000000E+02  0.51100000000E-03 0.  1.
    9900012    2    1    2    0    0 -0.14717521944E+02  0.50042318642E+01 -0.37570165333E+02  0.50528866809E+02  0.30000021151E+02 0.  0.
         12    1    1    2    0    0  0.14717521944E+02 -0.50042318642E+01  0.37570165333E+02  0.40659133191E+02  0.00000000000E+00 0. -1.
         11    1    3    3    0    0  0.26268277853E+01  0.36451076918E+01 -0.16364755242E+02  0.16970334372E+02  0.51100000000E-03 0.  1.
        -11    1    3    3    0    0 -0.10257442621E+02  0.44760165658E+01 -0.22339925723E+00  0.11193737575E+02  0.51100000000E-03 0. -1.
        -12    1    3    3    0    0 -0.70869071084E+01 -0.31168923934E+01 -0.20982010834E+02  0.22364794861E+02  0.00000000000E+00 0.  1.
</event>
<event>
 7    1  0.5972636E-013  0.5052885E+02  0.7816164E-02  0.1300439E+00
        -11   -1    0    0    0    0  0.00000000000E+00  0.00000000000E+00  0.45593999997E+02  0.45594000000E+02  0.51100000000E-03 0. -1.
         11   -1    0    0    0    0 -0.00000000000E+00 -0.00000000000E+00 -0.45593999997E+02  0.45594000000E+02  0.51100000000E-03 0.  1.
    9900012    2    1    2    0    0 -0.94093085517E+01 -0.36508843419E+02 -0.15222859172E+02  0.50528853715E+02  0.29999981354E+02 0.  0.
         12    1    1    2    0    0  0.94093085517E+01  0.36508843419E+02  0.15222859172E+02  0.40659146285E+02  0.00000000000E+00 0. -1.
         11    1    3    3    0    0 -0.12221836903E+02 -0.26383801409E+02  0.10916049770E+01  0.29097592268E+02  0.51100000000E-03 0. -1.
        -11    1    3    3    0    0 -0.10863826174E+01 -0.18349669557E+01 -0.10191722408E+02  0.10412422236E+02  0.51100000000E-03 0.  1.
         12    1    3    3    0    0  0.38989109691E+01 -0.82900750543E+01 -0.61227417412E+01  0.11018839212E+02  0.00000000000E+00 0. -1.
</event>
<event>
 7    1  0.5972636E-013  0.5052885E+02  0.7816164E-02  0.1300439E+00
        -11   -1    0    0    0    0  0.00000000000E+00  0.00000000000E+00  0.45593999997E+02  0.45594000000E+02  0.51100000000E-03 0. -1.
         11   -1    0    0    0    0 -0.00000000000E+00 -0.00000000000E+00 -0.45593999997E+02  0.45594000000E+02  0.51100000000E-03 0.  1.
    9900012    2    1    2    0    0  0.25141969576E+02 -0.22746127514E+02  0.22442399205E+02  0.50528853020E+02  0.29999979239E+02 0.  0.
         12    1    1    2    0    0 -0.25141969576E+02  0.22746127514E+02 -0.22442399205E+02  0.40659146980E+02  0.00000000000E+00 0. -1.
         11    1    3    3    0    0 -0.16228157543E+01 -0.64135649520E+01  0.27451256740E-01  0.66157463826E+01  0.51100000000E-03 0. -1.
        -11    1    3    3    0    0  0.29769281255E+02 -0.16824126001E+02  0.22382407574E+02  0.40868490200E+02  0.51100000000E-03 0.  1.
        -12    1    3    3    0    0 -0.30044959249E+01  0.49156343843E+00  0.32540374860E-01  0.30446164377E+01  0.00000000000E+00 0.  1.
</event>
<event>
 7    1  0.5972636E-013  0.5052886E+02  0.7816164E-02  0.1300439E+00
        -11   -1    0    0    0    0  0.00000000000E+00  0.00000000000E+00  0.45593999997E+02  0.45594000000E+02  0.51100000000E-03 0.  1.
         11   -1    0    0    0    0 -0.00000000000E+00 -0.00000000000E+00 -0.45593999997E+02  0.45594000000E+02  0.51100000000E-03 0. -1.
    9900012    2    1    2    0    0 -0.27325676160E+02  0.83329212252E+01  0.28931566277E+02  0.50528859810E+02  0.29999999878E+02 0.  0.
         12    1    1    2    0    0  0.27325676160E+02 -0.83329212252E+01 -0.28931566277E+02  0.40659140190E+02  0.00000000000E+00 0. -1.
         11    1    3    3    0    0 -0.23504544666E+02  0.18877572607E+01  0.63676807197E+01  0.24424876774E+02  0.51100000000E-03 0. -1.
        -11    1    3    3    0    0  0.18253537122E+01 -0.15725925336E+01  0.14200147792E+01  0.27966776156E+01  0.51100000000E-03 0.  1.
         12    1    3    3    0    0 -0.56464852063E+01  0.80177564981E+01  0.21143870778E+02  0.23307305420E+02  0.00000000000E+00 0. -1.
</event>
<event>
 7    1  0.5972636E-013  0.5052883E+02  0.7816164E-02  0.1300439E+00
        -11   -1    0    0    0    0  0.00000000000E+00  0.00000000000E+00  0.45593999997E+02  0.45594000000E+02  0.51100000000E-03 0. -1.
         11   -1    0    0    0    0 -0.00000000000E+00 -0.00000000000E+00 -0.45593999997E+02  0.45594000000E+02  0.51100000000E-03 0.  1.
    9900012    2    1    2    0    0 -0.18987155750E+01 -0.19371085380E+02 -0.35697675675E+02  0.50528829838E+02  0.29999908776E+02 0.  0.
         12    1    1    2    0    0  0.18987155750E+01  0.19371085380E+02  0.35697675675E+02  0.40659170162E+02  0.00000000000E+00 0. -1.
         11    1    3    3    0    0 -0.29928090534E+01 -0.13122040277E+02 -0.16922926205E+01  0.13564980709E+02  0.51100000000E-03 0. -1.
        -11    1    3    3    0    0  0.31821402079E+01 -0.98361082930E+01 -0.24496630477E+02  0.26588718428E+02  0.51100000000E-03 0.  1.
        -12    1    3    3    0    0 -0.20880467295E+01  0.35870631900E+01 -0.95087525779E+01  0.10375130701E+02  0.00000000000E+00 0.  1.
</event>
<event>
 7    1  0.5972636E-013  0.5052884E+02  0.7816164E-02  0.1300439E+00
        -11   -1    0    0    0    0  0.00000000000E+00  0.00000000000E+00  0.45593999997E+02  0.45594000000E+02  0.51100000000E-03 0.  1.
         11   -1    0    0    0    0 -0.00000000000E+00 -0.00000000000E+00 -0.45593999997E+02  0.45594000000E+02  0.51100000000E-03 0. -1.
    9900012    2    1    2    0    0 -0.38997981159E+02  0.74080130883E+01 -0.88003623427E+01  0.50528836583E+02  0.29999929278E+02 0.  0.
         12    1    1    2    0    0  0.38997981159E+02 -0.74080130883E+01  0.88003623427E+01  0.40659163417E+02  0.00000000000E+00 0. -1.
         11    1    3    3    0    0 -0.36367835389E+01  0.24901388845E+01  0.81007599314E+01  0.92222176238E+01  0.51100000000E-03 0. -1.
        -11    1    3    3    0    0 -0.18861800268E+02 -0.31494127696E+01 -0.64857565591E+01  0.20192853898E+02  0.51100000000E-03 0.  1.
         12    1    3    3    0    0 -0.16499397352E+02  0.80672869734E+01 -0.10415365715E+02  0.21113765061E+02  0.00000000000E+00 0. -1.
</event>
<event>
 7    1  0.5972636E-013  0.5052886E+02  0.7816164E-02  0.1300439E+00
        -11   -1    0    0    0    0  0.00000000000E+00  0.00000000000E+00  0.45593999997E+02  0.45594000000E+02  0.51100000000E-03 0. -1.
         11   -1    0    0    0    0 -0.00000000000E+00 -0.00000000000E+00 -0.45593999997E+02  0.45594000000E+02  0.51100000000E-03 0.  1.
    9900012    2    1    2    0    0 -0.23965139008E+02 -0.24096574189E+02 -0.22320226172E+02  0.50528864843E+02  0.30000015177E+02 0.  0.
         12    1    1    2    0    0  0.23965139008E+02  0.24096574189E+02  0.22320226172E+02  0.40659135157E+02  0.00000000000E+00 0. -1.
         11    1    3    3    0    0  0.38204649895E+00 -0.11679195467E+02  0.23125644994E+01  0.11912074593E+02  0.51100000000E-03 0. -1.
        -11    1    3    3    0    0 -0.10853240105E+02 -0.11692779509E+02 -0.15920751307E+02  0.22538505626E+02  0.51100000000E-03 0.  1.
         12    1    3    3    0    0 -0.13493945403E+02 -0.72459921286E+00 -0.87120393645E+01  0.16078284624E+02  0.00000000000E+00 0. -1.
</event>
<event>
 7    1  0.5972636E-013  0.5052885E+02  0.7816164E-02  0.1300439E+00
        -11   -1    0    0    0    0  0.00000000000E+00  0.00000000000E+00  0.45593999997E+02  0.45594000000E+02  0.51100000000E-03 0.  1.
         11   -1    0    0    0    0 -0.00000000000E+00 -0.00000000000E+00 -0.45593999997E+02  0.45594000000E+02  0.51100000000E-03 0. -1.
    9900012    2    1    2    0    0 -0.27856751521E+02 -0.27001506125E+02  0.12169066405E+02  0.50528854467E+02  0.29999983637E+02 0.  0.
         12    1    1    2    0    0  0.27856751521E+02  0.27001506125E+02 -0.12169066405E+02  0.40659145533E+02  0.00000000000E+00 0. -1.
         11    1    3    3    0    0 -0.94192350435E+01 -0.11246096048E+02  0.24034426372E+01  0.14865167403E+02  0.51100000000E-03 0. -1.
        -11    1    3    3    0    0 -0.27982217882E+01  0.12307240772E+00  0.12861196311E+02  0.13162657893E+02  0.51100000000E-03 0.  1.
        -12    1    3    3    0    0 -0.15639294690E+02 -0.15878482484E+02 -0.30955725433E+01  0.22501029171E+02  0.00000000000E+00 0.  1.
</event>
<event>
 7    1  0.5972636E-013  0.5052885E+02  0.7816164E-02  0.1300439E+00
        -11   -1    0    0    0    0  0.00000000000E+00  0.00000000000E+00  0.45593999997E+02  0.45594000000E+02  0.51100000000E-03 0.  1.
         11   -1    0    0    0    0 -0.00000000000E+00 -0.00000000000E+00 -0.45593999997E+02  0.45594000000E+02  0.51100000000E-03 0. -1.
    9900012    2    1    2    0    0 -0.15549473883E+02  0.44439080249E+01  0.37304580390E+02  0.50528853740E+02  0.29999981427E+02 0.  0.
         12    1    1    2    0    0  0.15549473883E+02 -0.44439080249E+01 -0.37304580390E+02  0.40659146260E+02  0.00000000000E+00 0. -1.
         11    1    3    3    0    0  0.54821272013E+01  0.77347296810E+01  0.13151423097E+02  0.16212331468E+02  0.51100000000E-03 0. -1.
        -11    1    3    3    0    0 -0.10300348758E+02 -0.34261119157E+01  0.20101163928E+02  0.22844960471E+02  0.51100000000E-03 0.  1.
         12    1    3    3    0    0 -0.10731252326E+02  0.13529025966E+00  0.40519933654E+01  0.11471561801E+02  0.00000000000E+00 0. -1.
</event>
<event>
 7    1  0.5972636E-013  0.5052886E+02  0.7816164E-02  0.1300439E+00
        -11   -1    0    0    0    0  0.00000000000E+00  0.00000000000E+00  0.45593999997E+02  0.45594000000E+02  0.51100000000E-03 0.  1.
         11   -1    0    0    0    0 -0.00000000000E+00 -0.00000000000E+00 -0.45593999997E+02  0.45594000000E+02  0.51100000000E-03 0. -1.
    9900012    2    1    2    0    0 -0.31577125497E+02  0.17624209772E+02  0.18585962280E+02  0.50528860578E+02  0.30000002212E+02 0.  0.
         12    1    1    2    0    0  0.31577125497E+02 -0.17624209772E+02 -0.18585962280E+02  0.40659139422E+02  0.00000000000E+00 0. -1.
         11    1    3    3    0    0 -0.60778354649E+01  0.14489339823E+02  0.18875658161E+02  0.24559550560E+02  0.51100000000E-03 0. -1.
        -11    1    3    3    0    0 -0.85566215291E+01 -0.71502986570E+00 -0.37290778779E+00  0.85945389743E+01  0.51100000000E-03 0.  1.
         12    1    3    3    0    0 -0.16942668503E+02  0.38498998142E+01  0.83211906327E-01  0.17374771043E+02  0.00000000000E+00 0. -1.
</event>
<event>
 7    1  0.5972636E-013  0.5052886E+02  0.7816164E-02  0.1300439E+00
        -11   -1    0    0    0    0  0.00000000000E+00  0.00000000000E+00  0.45593999997E+02  0.45594000000E+02  0.51100000000E-03 0.  1.
         11   -1    0    0    0    0 -0.00000000000E+00 -0.00000000000E+00 -0.45593999997E+02  0.45594000000E+02  0.51100000000E-03 0. -1.
    9900012    2    1    2    0    0 -0.36669032463E+02 -0.64045789956E+01  0.16356328515E+02  0.50528855194E+02  0.29999985847E+02 0.  0.
         12    1    1    2    0    0  0.36669032463E+02  0.64045789956E+01 -0.16356328515E+02  0.40659144806E+02  0.00000000000E+00 0. -1.
         11    1    3    3    0    0 -0.55484910274E+01  0.41561579086E+01  0.75425850671E+01  0.10244510286E+02  0.51100000000E-03 0. -1.
        -11    1    3    3    0    0 -0.16283698886E+02 -0.14140822756E+02 -0.18796300177E+01  0.21648434745E+02  0.51100000000E-03 0.  1.
        -12    1    3    3    0    0 -0.14836842550E+02  0.35800858514E+01  0.10693373465E+02  0.18635910163E+02  0.00000000000E+00 0.  1.
</event>
<event>
 7    1  0.5972636E-013  0.5052887E+02  0.7816164E-02  0.1300439E+00
        -11   -1    0    0    0    0  0.00000000000E+00  0.00000000000E+00  0.45593999997E+02  0.45594000000E+02  0.51100000000E-03 0. -1.
         11   -1    0    0    0    0 -0.00000000000E+00 -0.00000000000E+00 -0.45593999997E+02  0.45594000000E+02  0.51100000000E-03 0.  1.
    9900012    2    1    2    0    0  0.28205837881E+02  0.56670182877E+01  0.28731169560E+02  0.50528874442E+02  0.30000044354E+02 0.  0.
         12    1    1    2    0    0 -0.28205837881E+02 -0.56670182877E+01 -0.28731169560E+02  0.40659125558E+02  0.00000000000E+00 0. -1.
         11    1    3    3    0    0  0.83652938136E+01  0.11323972030E+02  0.14819227232E+02  0.20440645272E+02  0.51100000000E-03 0. -1.
        -11    1    3    3    0    0  0.80007910750E+01 -0.92811919797E+01  0.12698823788E+02  0.17646906478E+02  0.51100000000E-03 0.  1.
        -12    1    3    3    0    0  0.11839752992E+02  0.36242382371E+01  0.12131185404E+01  0.12441322691E+02  0.00000000000E+00 0.  1.
</event>
<event>
 7    1  0.5972636E-013  0.5052887E+02  0.7816164E-02  0.1300439E+00
        -11   -1    0    0    0    0  0.00000000000E+00  0.00000000000E+00  0.45593999997E+02  0.45594000000E+02  0.51100000000E-03 0. -1.
         11   -1    0    0    0    0 -0.00000000000E+00 -0.00000000000E+00 -0.45593999997E+02  0.45594000000E+02  0.51100000000E-03 0.  1.
    9900012    2    1    2    0    0 -0.50871491641E+01  0.12719699767E+02 -0.38281785984E+02  0.50528868346E+02  0.30000025824E+02 0.  0.
         12    1    1    2    0    0  0.50871491641E+01 -0.12719699767E+02  0.38281785984E+02  0.40659131654E+02  0.00000000000E+00 0. -1.
         11    1    3    3    0    0  0.10979685147E+02  0.83042508448E+01 -0.13694968873E+02  0.19418193549E+02  0.51100000000E-03 0. -1.
        -11    1    3    3    0    0 -0.84765574396E+01 -0.24520568839E+01 -0.11157454464E+02  0.14225097517E+02  0.51100000000E-03 0.  1.
         12    1    3    3    0    0 -0.75902768711E+01  0.68675058065E+01 -0.13429362646E+02  0.16885577279E+02  0.00000000000E+00 0. -1.
</event>
<event>
 7    1  0.5972636E-013  0.5052885E+02  0.7816164E-02  0.1300439E+00
        -11   -1    0    0    0    0  0.00000000000E+00  0.00000000000E+00  0.45593999997E+02  0.45594000000E+02  0.51100000000E-03 0.  1.
         11   -1    0    0    0    0 -0.00000000000E+00 -0.00000000000E+00 -0.45593999997E+02  0.45594000000E+02  0.51100000000E-03 0. -1.
    9900012    2    1    2    0    0 -0.64016652673E+01 -0.15003413153E+02  0.37243556598E+02  0.50528853028E+02  0.29999979263E+02 0.  0.
         12    1    1    2    0    0  0.64016652673E+01  0.15003413153E+02 -0.37243556598E+02  0.40659146972E+02  0.00000000000E+00 0. -1.
         11    1    3    3    0    0  0.14101220780E+01 -0.15728357072E+02  0.60188916262E+01  0.16899607011E+02  0.51100000000E-03 0. -1.
        -11    1    3    3    0    0  0.42925094699E-01  0.23902676087E+01  0.17999042358E+02  0.18157112872E+02  0.51100000000E-03 0.  1.
        -12    1    3    3    0    0 -0.78547124400E+01 -0.16653236899E+01  0.13225622615E+02  0.15472133145E+02  0.00000000000E+00 0.  1.
</event>
<event>
 7    1  0.5972636E-013  0.5052887E+02  0.7816164E-02  0.1300439E+00
        -11   -1    0    0    0    0  0.00000000000E+00  0.00000000000E+00  0.45593999997E+02  0.45594000000E+02  0.51100000000E-03 0. -1.
         11   -1    0    0    0    0 -0.00000000000E+00 -0.00000000000E+00 -0.45593999997E+02  0.45594000000E+02  0.51100000000E-03 0.  1.
    9900012    2    1    2    0    0 -0.15549863633E+02 -0.10927365274E+02 -0.35943840047E+02  0.50528865625E+02  0.30000017554E+02 0.  0.
         12    1    1    2    0    0  0.15549863633E+02  0.10927365274E+02  0.35943840047E+02  0.40659134375E+02  0.00000000000E+00 0. -1.
         11    1    3    3    0    0 -0.53064057242E+01 -0.13141181646E+02 -0.26289264130E+01  0.14413877032E+02  0.51100000000E-03 0. -1.
        -11    1    3    3    0    0 -0.10487896523E+02  0.46966107088E+00 -0.32538557883E+02  0.34190266222E+02  0.51100000000E-03 0.  1.
        -12    1    3    3    0    0  0.24443861456E+00  0.17441553012E+01 -0.77635575062E+00  0.19247223703E+01  0.00000000000E+00 0.  1.
</event>
<event>
 7    1  0.5972636E-013  0.5052884E+02  0.7816164E-02  0.1300439E+00
        -11   -1    0    0    0    0  0.00000000000E+00  0.00000000000E+00  0.45593999997E+02  0.45594000000E+02  0.51100000000E-03 0.  1.
         11   -1    0    0    0    0 -0.00000000000E+00 -0.00000000000E+00 -0.45593999997E+02  0.45594000000E+02  0.51100000000E-03 0. -1.
    9900012    2    1    2    0    0  0.25850135483E+02 -0.23948828024E+02  0.20282778974E+02  0.50528843698E+02  0.29999950905E+02 0.  0.
         12    1    1    2    0    0 -0.25850135483E+02  0.23948828024E+02 -0.20282778974E+02  0.40659156302E+02  0.00000000000E+00 0. -1.
         11    1    3    3    0    0  0.38940463080E+01 -0.18848334662E+02  0.43255718208E+01  0.19726476827E+02  0.51100000000E-03 0. -1.
        -11    1    3    3    0    0  0.12601057795E+02 -0.71512847347E+01  0.15495448411E+02  0.21214062615E+02  0.51100000000E-03 0.  1.
         12    1    3    3    0    0  0.93550313800E+01  0.20507913721E+01  0.46175874259E+00  0.95883042561E+01  0.00000000000E+00 0. -1.
</event>
<event>
 7    1  0.5972636E-013  0.5052886E+02  0.7816164E-02  0.1300439E+00
        -11   -1    0    0    0    0  0.00000000000E+00  0.00000000000E+00  0.45593999997E+02  0.45594000000E+02  0.51100000000E-03 0.  1.
         11   -1    0    0    0    0 -0.00000000000E+00 -0.00000000000E+00 -0.45593999997E+02  0.45594000000E+02  0.51100000000E-03 0. -1.
    9900012    2    1    2    0    0  0.12794635608E+02  0.70891196795E+01  0.37936888708E+02  0.50528857818E+02  0.29999993822E+02 0.  0.
         12    1    1    2    0    0 -0.12794635608E+02 -0.70891196795E+01 -0.37936888708E+02  0.40659142182E+02  0.00000000000E+00 0. -1.
         11    1    3    3    0    0  0.17793678051E+02 -0.18207301180E+01  0.22922927174E+02  0.29075601923E+02  0.51100000000E-03 0. -1.
        -11    1    3    3    0    0 -0.13373416632E+01  0.26440587669E+01  0.13776111488E+02  0.14091159550E+02  0.51100000000E-03 0.  1.
         12    1    3    3    0    0 -0.36617007798E+01  0.62657910306E+01  0.12378500466E+01  0.73620963439E+01  0.00000000000E+00 0. -1.
</event>
<event>
 7    1  0.5972636E-013  0.5052886E+02  0.7816164E-02  0.1300439E+00
        -11   -1    0    0    0    0  0.00000000000E+00  0.00000000000E+00  0.45593999997E+02  0.45594000000E+02  0.51100000000E-03 0.  1.
         11   -1    0    0    0    0 -0.00000000000E+00 -0.00000000000E+00 -0.45593999997E+02  0.45594000000E+02  0.51100000000E-03 0. -1.
    9900012    2    1    2    0    0  0.18484728972E+02  0.16247159159E+02  0.32365265680E+02  0.50528858242E+02  0.29999995114E+02 0.  0.
         12    1    1    2    0    0 -0.18484728972E+02 -0.16247159159E+02 -0.32365265680E+02  0.40659141758E+02  0.00000000000E+00 0. -1.
         11    1    3    3    0    0 -0.67843128702E+01  0.29298614654E+01  0.56227749944E+01  0.92858272774E+01  0.51100000000E-03 0. -1.
        -11    1    3    3    0    0  0.14438035420E+02  0.14544887269E+02  0.17168953417E+02  0.26735436674E+02  0.51100000000E-03 0.  1.
         12    1    3    3    0    0  0.10831006422E+02 -0.12275895748E+01  0.95735372690E+01  0.14507594291E+02  0.00000000000E+00 0. -1.
</event>
<event>
 7    1  0.5972636E-013  0.5052887E+02  0.7816164E-02  0.1300439E+00
        -11   -1    0    0    0    0  0.00000000000E+00  0.00000000000E+00  0.45593999997E+02  0.45594000000E+02  0.51100000000E-03 0. -1.
         11   -1    0    0    0    0 -0.00000000000E+00 -0.00000000000E+00 -0.45593999997E+02  0.45594000000E+02  0.51100000000E-03 0.  1.
    9900012    2    1    2    0    0 -0.11372133313E+02 -0.36840462093E+02 -0.12908121699E+02  0.50528872253E+02  0.30000037700E+02 0.  0.
         12    1    1    2    0    0  0.11372133313E+02  0.36840462093E+02  0.12908121699E+02  0.40659127747E+02  0.00000000000E+00 0. -1.
         11    1    3    3    0    0  0.15173830004E+01 -0.96786386633E+01  0.75275477505E+01  0.12354856249E+02  0.51100000000E-03 0. -1.
        -11    1    3    3    0    0 -0.36977249334E+01 -0.19025364715E+02 -0.88940171411E+01  0.21324662093E+02  0.51100000000E-03 0.  1.
         12    1    3    3    0    0 -0.91917913798E+01 -0.81364587153E+01 -0.11541652309E+02  0.16849353911E+02  0.00000000000E+00 0. -1.
</event>
<event>
 7    1  0.5972636E-013  0.5052886E+02  0.7816164E-02  0.1300439E+00
        -11   -1    0    0    0    0  0.00000000000E+00  0.00000000000E+00  0.45593999997E+02  0.45594000000E+02  0.51100000000E-03 0.  1.
         11   -1    0    0    0    0 -0.00000000000E+00 -0.00000000000E+00 -0.45593999997E+02  0.45594000000E+02  0.51100000000E-03 0. -1.
    9900012    2    1    2    0    0  0.12045007606E+02  0.82747111978E+01  0.37942223263E+02  0.50528863760E+02  0.30000011884E+02 0.  0.
         12    1    1    2    0    0 -0.12045007606E+02 -0.82747111978E+01 -0.37942223263E+02  0.40659136240E+02  0.00000000000E+00 0. -1.
         11    1    3    3    0    0  0.12552495021E+02  0.17201143976E+01  0.23390896577E+01  0.12883914990E+02  0.51100000000E-03 0. -1.
        -11    1    3    3    0    0  0.17864267870E+01 -0.23696014612E+01  0.10170064867E+02  0.10594175353E+02  0.51100000000E-03 0.  1.
         12    1    3    3    0    0 -0.22939142016E+01  0.89241982615E+01  0.25433068739E+02  0.27050773417E+02  0.00000000000E+00 0. -1.
</event>
<event>
 7    1  0.5972636E-013  0.5052886E+02  0.7816164E-02  0.1300439E+00
        -11   -1    0    0    0    0  0.00000000000E+00  0.00000000000E+00  0.45593999997E+02  0.45594000000E+02  0.51100000000E-03 0.  1.
         11   -1    0    0    0    0 -0.00000000000E+00 -0.00000000000E+00 -0.45593999997E+02  0.45594000000E+02  0.51100000000E-03 0. -1.
    9900012    2    1    2    0    0  0.81266239262E+01 -0.64146251400E+01  0.39318904998E+02  0.50528859301E+02  0.29999998332E+02 0.  0.
         12    1    1    2    0    0 -0.81266239262E+01  0.64146251400E+01 -0.39318904998E+02  0.40659140699E+02  0.00000000000E+00 0. -1.
         11    1    3    3    0    0  0.12069230534E+02 -0.39214548732E+01  0.28342667926E+01  0.13002968989E+02  0.51100000000E-03 0. -1.
        -11    1    3    3    0    0 -0.40720812279E+01  0.16875343432E+01  0.22561035385E+02  0.22987603955E+02  0.51100000000E-03 0.  1.
         12    1    3    3    0    0  0.12947462004E+00 -0.41807046100E+01  0.13923602820E+02  0.14538286357E+02  0.00000000000E+00 0. -1.
</event>
<event>
 7    1  0.5972636E-013  0.5052885E+02  0.7816164E-02  0.1300439E+00
        -11   -1    0    0    0    0  0.00000000000E+00  0.00000000000E+00  0.45593999997E+02  0.45594000000E+02  0.51100000000E-03 0. -1.
         11   -1    0    0    0    0 -0.00000000000E+00 -0.00000000000E+00 -0.45593999997E+02  0.45594000000E+02  0.51100000000E-03 0.  1.
    9900012    2    1    2    0    0 -0.10391946928E+02  0.38317240479E+02 -0.87728418096E+01  0.50528853030E+02  0.29999979270E+02 0.  0.
         12    1    1    2    0    0  0.10391946928E+02 -0.38317240479E+02  0.87728418096E+01  0.40659146970E+02  0.00000000000E+00 0. -1.
         11    1    3    3    0    0  0.41827444983E+01  0.17464522472E+02 -0.15528372425E+01  0.18025432047E+02  0.51100000000E-03 0. -1.
        -11    1    3    3    0    0 -0.15040426588E+02  0.24097138073E+02 -0.62497050820E+01  0.29085138974E+02  0.51100000000E-03 0.  1.
        -12    1    3    3    0    0  0.46573516219E+00 -0.32444200656E+01 -0.97029948513E+00  0.34182820092E+01  0.00000000000E+00 0.  1.
</event>
<event>
 7    1  0.5972636E-013  0.5052885E+02  0.7816164E-02  0.1300439E+00
        -11   -1    0    0    0    0  0.00000000000E+00  0.00000000000E+00  0.45593999997E+02  0.45594000000E+02  0.51100000000E-03 0. -1.
         11   -1    0    0    0    0 -0.00000000000E+00 -0.00000000000E+00 -0.45593999997E+02  0.45594000000E+02  0.51100000000E-03 0.  1.
    9900012    2    1    2    0    0  0.40072496108E+02 -0.68407666077E+01  0.75180068452E+00  0.50528852980E+02  0.29999979119E+02 0.  0.
         12    1    1    2    0    0 -0.40072496108E+02  0.68407666077E+01 -0.75180068452E+00  0.40659147020E+02  0.00000000000E+00 0. -1.
         11    1    3    3    0    0  0.10921592284E+02 -0.31724611857E+01  0.10231485276E+02  0.15298005727E+02  0.51100000000E-03 0. -1.
        -11    1    3    3    0    0  0.22354766033E+02 -0.66375157155E+01 -0.13344713851E+02  0.26867704913E+02  0.51100000000E-03 0.  1.
        -12    1    3    3    0    0  0.67961377909E+01  0.29692102934E+01  0.38650292590E+01  0.83631423408E+01  0.00000000000E+00 0.  1.
</event>
<event>
 7    1  0.7690497E-013  0.5052887E+02  0.7816164E-02  0.1300439E+00
        -11   -1    0    0    0    0  0.00000000000E+00  0.00000000000E+00  0.45593999997E+02  0.45594000000E+02  0.51100000000E-03 0.  1.
         11   -1    0    0    0    0 -0.00000000000E+00 -0.00000000000E+00 -0.45593999997E+02  0.45594000000E+02  0.51100000000E-03 0. -1.
    9900012    2    1    2    0    0  0.38987736331E+02  0.63961209974E+00  0.11520079244E+02  0.50528869246E+02  0.30000028562E+02 0.  0.
         12    1    1    2    0    0 -0.38987736331E+02 -0.63961209974E+00 -0.11520079244E+02  0.40659130754E+02  0.00000000000E+00 0. -1.
         11    1    3    3    0    0  0.41254128172E+01  0.36076227912E+01 -0.62330195439E+01  0.82996690302E+01  0.51100000000E-03 0. -1.
        -11    1    3    3    0    0  0.32090865600E+02  0.23394340025E+01  0.13544632424E+02  0.34910652732E+02  0.51100000000E-03 0.  1.
         12    1    3    3    0    0  0.27714579140E+01 -0.53074446940E+01  0.42084663637E+01  0.73185474845E+01  0.00000000000E+00 0. -1.
</event>
<event>
 7    1  0.5972636E-013  0.5052886E+02  0.7816164E-02  0.1300439E+00
        -11   -1    0    0    0    0  0.00000000000E+00  0.00000000000E+00  0.45593999997E+02  0.45594000000E+02  0.51100000000E-03 0. -1.
         11   -1    0    0    0    0 -0.00000000000E+00 -0.00000000000E+00 -0.45593999997E+02  0.45594000000E+02  0.51100000000E-03 0.  1.
    9900012    2    1    2    0    0 -0.16112988860E+02 -0.18168035821E+02 -0.32610727059E+02  0.50528862590E+02  0.30000008329E+02 0.  0.
         12    1    1    2    0    0  0.16112988860E+02  0.18168035821E+02  0.32610727059E+02  0.40659137410E+02  0.00000000000E+00 0. -1.
         11    1    3    3    0    0 -0.75790961261E+01  0.33653686915E+01  0.80376553113E+00  0.83315331007E+01  0.51100000000E-03 0. -1.
        -11    1    3    3    0    0 -0.90867811109E+01 -0.21162220381E+02 -0.34159509283E+02  0.41198073221E+02  0.51100000000E-03 0.  1.
        -12    1    3    3    0    0  0.55288837682E+00 -0.37118413153E+00  0.74501669309E+00  0.99925626829E+00  0.00000000000E+00 0.  1.
</event>
<event>
 7    1  0.5972636E-013  0.5052884E+02  0.7816164E-02  0.1300439E+00
        -11   -1    0    0    0    0  0.00000000000E+00  0.00000000000E+00  0.45593999997E+02  0.45594000000E+02  0.51100000000E-03 0.  1.
         11   -1    0    0    0    0 -0.00000000000E+00 -0.00000000000E+00 -0.45593999997E+02  0.45594000000E+02  0.51100000000E-03 0. -1.
    9900012    2    1    2    0    0 -0.19532609737E+02 -0.31746339885E+02  0.16242372669E+02  0.50528836098E+02  0.29999927805E+02 0.  0.
         12    1    1    2    0    0  0.19532609737E+02  0.31746339885E+02 -0.16242372669E+02  0.40659163902E+02  0.00000000000E+00 0. -1.
         11    1    3    3    0    0  0.52142110853E+01  0.20685127822E+00 -0.25728898043E+00  0.52246514308E+01  0.51100000000E-03 0. -1.
        -11    1    3    3    0    0 -0.20062529555E+02 -0.30119916386E+02  0.17462273999E+02  0.40182651340E+02  0.51100000000E-03 0.  1.
        -12    1    3    3    0    0 -0.46842912675E+01 -0.18332747771E+01 -0.96261234918E+00  0.51215333272E+01  0.00000000000E+00 0.  1.
</event>
<event>
 7    1  0.5972636E-013  0.5052879E+02  0.7816164E-02  0.1300439E+00
        -11   -1    0    0    0    0  0.00000000000E+00  0.00000000000E+00  0.45593999997E+02  0.45594000000E+02  0.51100000000E-03 0.  1.
         11   -1    0    0    0    0 -0.00000000000E+00 -0.00000000000E+00 -0.45593999997E+02  0.45594000000E+02  0.51100000000E-03 0. -1.
    9900012    2    1    2    0    0  0.14183275455E+02  0.22048726994E+02 -0.31078283112E+02  0.50528790146E+02  0.29999788128E+02 0.  0.
         12    1    1    2    0    0 -0.14183275455E+02 -0.22048726994E+02  0.31078283112E+02  0.40659209854E+02  0.00000000000E+00 0. -1.
         11    1    3    3    0    0  0.20269154575E+02  0.11363152446E+02 -0.27779485902E+02  0.36216842739E+02  0.51100000000E-03 0.  1.
        -11    1    3    3    0    0 -0.61059929329E+01  0.51015614720E+01 -0.35709233839E+01  0.87212713078E+01  0.51100000000E-03 0. -1.
        -12    1    3    3    0    0  0.20113812412E-01  0.55840130760E+01  0.27212617364E+00  0.55906760998E+01  0.00000000000E+00 0.  1.
</event>
<event>
 7    1  0.5972636E-013  0.5052889E+02  0.7816164E-02  0.1300439E+00
        -11   -1    0    0    0    0  0.00000000000E+00  0.00000000000E+00  0.45593999997E+02  0.45594000000E+02  0.51100000000E-03 0.  1.
         11   -1    0    0    0    0 -0.00000000000E+00 -0.00000000000E+00 -0.45593999997E+02  0.45594000000E+02  0.51100000000E-03 0. -1.
    9900012    2    1    2    0    0  0.23790754586E+02 -0.22921614910E+02  0.23701530182E+02  0.50528893187E+02  0.30000101331E+02 0.  0.
         12    1    1    2    0    0 -0.23790754586E+02  0.22921614910E+02 -0.23701530182E+02  0.40659106813E+02  0.00000000000E+00 0. -1.
         11    1    3    3    0    0  0.21942181354E+01 -0.31896818273E+01 -0.39554926913E+01  0.55348519472E+01  0.51100000000E-03 0. -1.
        -11    1    3    3    0    0  0.85082141754E+01 -0.21929114333E+01  0.19938360684E+02  0.21788455568E+02  0.51100000000E-03 0.  1.
        -12    1    3    3    0    0  0.13088322275E+02 -0.17539021650E+02  0.77186621896E+01  0.23205585672E+02  0.00000000000E+00 0.  1.
</event>
<event>
 7    1  0.5972636E-013  0.5052888E+02  0.7816164E-02  0.1300439E+00
        -11   -1    0    0    0    0  0.00000000000E+00  0.00000000000E+00  0.45593999997E+02  0.45594000000E+02  0.51100000000E-03 0.  1.
         11   -1    0    0    0    0 -0.00000000000E+00 -0.00000000000E+00 -0.45593999997E+02  0.45594000000E+02  0.51100000000E-03 0. -1.
    9900012    2    1    2    0    0 -0.27197915775E+02 -0.22874442581E+02  0.19753416974E+02  0.50528877677E+02  0.30000054188E+02 0.  0.
         12    1    1    2    0    0  0.27197915775E+02  0.22874442581E+02 -0.19753416974E+02  0.40659122323E+02  0.00000000000E+00 0. -1.
         11    1    3    3    0    0 -0.88777073589E+01 -0.14115424818E+01 -0.15880722600E+01  0.91284234067E+01  0.51100000000E-03 0. -1.
        -11    1    3    3    0    0 -0.98557720711E+01 -0.22711071240E+02  0.21578142691E+02  0.32841212558E+02  0.51100000000E-03 0.  1.
        -12    1    3    3    0    0 -0.84644363452E+01  0.12481711411E+01 -0.23665345722E+00  0.85592417128E+01  0.00000000000E+00 0.  1.
</event>
<event>
 7    1  0.5972636E-013  0.5052885E+02  0.7816164E-02  0.1300439E+00
        -11   -1    0    0    0    0  0.00000000000E+00  0.00000000000E+00  0.45593999997E+02  0.45594000000E+02  0.51100000000E-03 0.  1.
         11   -1    0    0    0    0 -0.00000000000E+00 -0.00000000000E+00 -0.45593999997E+02  0.45594000000E+02  0.51100000000E-03 0. -1.
    9900012    2    1    2    0    0  0.29092664199E+02  0.20570382131E+02  0.19586805190E+02  0.50528847663E+02  0.29999962956E+02 0.  0.
         12    1    1    2    0    0 -0.29092664199E+02 -0.20570382131E+02 -0.19586805190E+02  0.40659152337E+02  0.00000000000E+00 0. -1.
         11    1    3    3    0    0  0.22824672807E+02  0.11758358711E+02  0.90094948788E+01  0.27210212909E+02  0.51100000000E-03 0. -1.
        -11    1    3    3    0    0 -0.28343072149E+01  0.65165368190E+00  0.10705251844E+02  0.11093257736E+02  0.51100000000E-03 0.  1.
         12    1    3    3    0    0  0.91022986065E+01  0.81603697379E+01 -0.12794153212E+00  0.12225377017E+02  0.00000000000E+00 0. -1.
</event>
<event>
 7    1  0.5972636E-013  0.5052886E+02  0.7816164E-02  0.1300439E+00
        -11   -1    0    0    0    0  0.00000000000E+00  0.00000000000E+00  0.45593999997E+02  0.45594000000E+02  0.51100000000E-03 0.  1.
         11   -1    0    0    0    0 -0.00000000000E+00 -0.00000000000E+00 -0.45593999997E+02  0.45594000000E+02  0.51100000000E-03 0. -1.
    9900012    2    1    2    0    0 -0.39893438900E+02  0.56716447150E+01 -0.54324650895E+01  0.50528859601E+02  0.29999999242E+02 0.  0.
         12    1    1    2    0    0  0.39893438900E+02 -0.56716447150E+01  0.54324650895E+01  0.40659140399E+02  0.00000000000E+00 0. -1.
         11    1    3    3    0    0  0.38881438141E+01  0.23734638640E+01  0.42677284491E+00  0.45752735826E+01  0.51100000000E-03 0. -1.
        -11    1    3    3    0    0 -0.15924944072E+02  0.62501658672E+01  0.92020530402E+00  0.17132285169E+02  0.51100000000E-03 0.  1.
         12    1    3    3    0    0 -0.27856638642E+02 -0.29519850162E+01 -0.67794432384E+01  0.28821300849E+02  0.00000000000E+00 0. -1.
</event>
<event>
 7    1  0.5972636E-013  0.5052886E+02  0.7816164E-02  0.1300439E+00
        -11   -1    0    0    0    0  0.00000000000E+00  0.00000000000E+00  0.45593999997E+02  0.45594000000E+02  0.51100000000E-03 0. -1.
         11   -1    0    0    0    0 -0.00000000000E+00 -0.00000000000E+00 -0.45593999997E+02  0.45594000000E+02  0.51100000000E-03 0.  1.
    9900012    2    1    2    0    0  0.32186993252E+02 -0.18280261569E+02 -0.16822453326E+02  0.50528862853E+02  0.30000009127E+02 0.  0.
         12    1    1    2    0    0 -0.32186993252E+02  0.18280261569E+02  0.16822453326E+02  0.40659137147E+02  0.00000000000E+00 0. -1.
         11    1    3    3    0    0 -0.36573334891E+01  0.28667467056E+01 -0.20632795252E+01  0.50844318842E+01  0.51100000000E-03 0. -1.
        -11    1    3    3    0    0  0.28283520612E+02 -0.21039562447E+02 -0.10577381081E+02  0.36803555765E+02  0.51100000000E-03 0.  1.
         12    1    3    3    0    0  0.75608061288E+01 -0.10744582806E+00 -0.41817927206E+01  0.86408752034E+01  0.00000000000E+00 0. -1.
</event>
<event>
 7    1  0.5972636E-013  0.5052886E+02  0.7816164E-02  0.1300439E+00
        -11   -1    0    0    0    0  0.00000000000E+00  0.00000000000E+00  0.45593999997E+02  0.45594000000E+02  0.51100000000E-03 0.  1.
         11   -1    0    0    0    0 -0.00000000000E+00 -0.00000000000E+00 -0.45593999997E+02  0.45594000000E+02  0.51100000000E-03 0. -1.
    9900012    2    1    2    0    0  0.38962160293E+02  0.69739557805E+01  0.92994577740E+01  0.50528857009E+02  0.29999991363E+02 0.  0.
         12    1    1    2    0    0 -0.38962160293E+02 -0.69739557805E+01 -0.92994577740E+01  0.40659142991E+02  0.00000000000E+00 0. -1.
         11    1    3    3    0    0 -0.26479318119E+01  0.19935111970E+01  0.44351340853E+01  0.55367900799E+01  0.51100000000E-03 0. -1.
        -11    1    3    3    0    0  0.27828357142E+02  0.10602993675E+02  0.43747054858E+01  0.30099484787E+02  0.51100000000E-03 0.  1.
        -12    1    3    3    0    0  0.13781734963E+02 -0.56225490911E+01  0.48961820281E+00  0.14892582142E+02  0.00000000000E+00 0.  1.
</event>
<event>
 7    1  0.5972636E-013  0.5052886E+02  0.7816164E-02  0.1300439E+00
        -11   -1    0    0    0    0  0.00000000000E+00  0.00000000000E+00  0.45593999997E+02  0.45594000000E+02  0.51100000000E-03 0. -1.
         11   -1    0    0    0    0 -0.00000000000E+00 -0.00000000000E+00 -0.45593999997E+02  0.45594000000E+02  0.51100000000E-03 0.  1.
    9900012    2    1    2    0    0  0.24004462514E+02  0.30663606738E+02  0.11691666390E+02  0.50528855128E+02  0.29999985647E+02 0.  0.
         12    1    1    2    0    0 -0.24004462514E+02 -0.30663606738E+02 -0.11691666390E+02  0.40659144872E+02  0.00000000000E+00 0. -1.
         11    1    3    3    0    0  0.88343777709E+01  0.21259416068E+02  0.17889343304E+02  0.29155404410E+02  0.51100000000E-03 0. -1.
        -11    1    3    3    0    0  0.12375114301E+02  0.67082564248E+01 -0.19709451168E-01  0.14076382595E+02  0.51100000000E-03 0.  1.
         12    1    3    3    0    0  0.27949704421E+01  0.26959342447E+01 -0.61779674632E+01  0.72970681236E+01  0.00000000000E+00 0. -1.
</event>
<event>
 7    1  0.5972636E-013  0.5052886E+02  0.7816164E-02  0.1300439E+00
        -11   -1    0    0    0    0  0.00000000000E+00  0.00000000000E+00  0.45593999997E+02  0.45594000000E+02  0.51100000000E-03 0. -1.
         11   -1    0    0    0    0 -0.00000000000E+00 -0.00000000000E+00 -0.45593999997E+02  0.45594000000E+02  0.51100000000E-03 0.  1.
    9900012    2    1    2    0    0 -0.28472488220E+02  0.15939234475E+02 -0.24257448540E+02  0.50528860919E+02  0.30000003251E+02 0.  0.
         12    1    1    2    0    0  0.28472488220E+02 -0.15939234475E+02  0.24257448540E+02  0.40659139081E+02  0.00000000000E+00 0. -1.
         11    1    3    3    0    0 -0.13539136623E+02  0.15217561919E+02 -0.57685333499E+01  0.21169751735E+02  0.51100000000E-03 0.  1.
        -11    1    3    3    0    0 -0.82825028872E+01 -0.73714205399E+01 -0.47006856787E+01  0.12043012122E+02  0.51100000000E-03 0. -1.
         12    1    3    3    0    0 -0.66508487099E+01  0.80930930952E+01 -0.13788229512E+02  0.17316097062E+02  0.00000000000E+00 0. -1.
</event>
<event>
 7    1  0.5972636E-013  0.5052887E+02  0.7816164E-02  0.1300439E+00
        -11   -1    0    0    0    0  0.00000000000E+00  0.00000000000E+00  0.45593999997E+02  0.45594000000E+02  0.51100000000E-03 0.  1.
         11   -1    0    0    0    0 -0.00000000000E+00 -0.00000000000E+00 -0.45593999997E+02  0.45594000000E+02  0.51100000000E-03 0. -1.
    9900012    2    1    2    0    0 -0.61227185328E+01  0.13302109482E+02  0.37930610274E+02  0.50528868250E+02  0.30000025532E+02 0.  0.
         12    1    1    2    0    0  0.61227185328E+01 -0.13302109482E+02 -0.37930610274E+02  0.40659131750E+02  0.00000000000E+00 0. -1.
         11    1    3    3    0    0 -0.34646676675E+01  0.84934172743E+01 -0.63428230403E+00  0.91948014304E+01  0.51100000000E-03 0. -1.
        -11    1    3    3    0    0 -0.77114877893E+00  0.91942828490E+01  0.31374083250E+02  0.32702639154E+02  0.51100000000E-03 0.  1.
         12    1    3    3    0    0 -0.18869020864E+01 -0.43855906412E+01  0.71908093279E+01  0.86314276656E+01  0.00000000000E+00 0. -1.
</event>
<event>
 7    1  0.5972636E-013  0.5052888E+02  0.7816164E-02  0.1300439E+00
        -11   -1    0    0    0    0  0.00000000000E+00  0.00000000000E+00  0.45593999997E+02  0.45594000000E+02  0.51100000000E-03 0.  1.
         11   -1    0    0    0    0 -0.00000000000E+00 -0.00000000000E+00 -0.45593999997E+02  0.45594000000E+02  0.51100000000E-03 0. -1.
    9900012    2    1    2    0    0 -0.15090078523E+02 -0.22614678361E+01  0.37687392572E+02  0.50528877217E+02  0.30000052788E+02 0.  0.
         12    1    1    2    0    0  0.15090078523E+02  0.22614678361E+01 -0.37687392572E+02  0.40659122783E+02  0.00000000000E+00 0. -1.
         11    1    3    3    0    0  0.14495621322E+00  0.37911755087E+01 -0.33611945524E+01  0.50686934334E+01  0.51100000000E-03 0. -1.
        -11    1    3    3    0    0 -0.16672757173E+02 -0.56822716907E+01  0.34395927359E+02  0.38643872249E+02  0.51100000000E-03 0.  1.
         12    1    3    3    0    0  0.14377224367E+01 -0.37037165413E+00  0.66526597660E+01  0.68163115340E+01  0.00000000000E+00 0. -1.
</event>
<event>
 7    1  0.5972636E-013  0.5052881E+02  0.7816164E-02  0.1300439E+00
        -11   -1    0    0    0    0  0.00000000000E+00  0.00000000000E+00  0.45593999997E+02  0.45594000000E+02  0.51100000000E-03 0. -1.
         11   -1    0    0    0    0 -0.00000000000E+00 -0.00000000000E+00 -0.45593999997E+02  0.45594000000E+02  0.51100000000E-03 0.  1.
    9900012    2    1    2    0    0 -0.22269776641E+02 -0.82083621318E+01 -0.33012870631E+02  0.50528809306E+02  0.29999846367E+02 0.  0.
         12    1    1    2    0    0  0.22269776641E+02  0.82083621318E+01  0.33012870631E+02  0.40659190694E+02  0.00000000000E+00 0. -1.
         11    1    3    3    0    0 -0.11654684067E+01 -0.96014143889E+01 -0.40200623128E+01  0.10474081159E+02  0.51100000000E-03 0. -1.
        -11    1    3    3    0    0 -0.21370134423E+02  0.49740760352E+01 -0.29120818162E+02  0.36461570569E+02  0.51100000000E-03 0.  1.
        -12    1    3    3    0    0  0.26582618873E+00 -0.35810237780E+01  0.12800984306E+00  0.35931575782E+01  0.00000000000E+00 0.  1.
</event>
<event>
 7    1  0.5972636E-013  0.5052877E+02  0.7816164E-02  0.1300439E+00
        -11   -1    0    0    0    0  0.00000000000E+00  0.00000000000E+00  0.45593999997E+02  0.45594000000E+02  0.51100000000E-03 0.  1.
         11   -1    0    0    0    0 -0.00000000000E+00 -0.00000000000E+00 -0.45593999997E+02  0.45594000000E+02  0.51100000000E-03 0. -1.
    9900012    2    1    2    0    0  0.42039844667E+01 -0.33876408255E+02  0.22088195386E+02  0.50528771072E+02  0.29999730149E+02 0.  0.
         12    1    1    2    0    0 -0.42039844667E+01  0.33876408255E+02 -0.22088195386E+02  0.40659228928E+02  0.00000000000E+00 0. -1.
         11    1    3    3    0    0  0.11941778989E+02 -0.10593548957E+02  0.11640252383E+02  0.19756640421E+02  0.51100000000E-03 0. -1.
        -11    1    3    3    0    0 -0.14791742632E+01 -0.21408845691E+02  0.11181007838E+02  0.24197966172E+02  0.51100000000E-03 0.  1.
         12    1    3    3    0    0 -0.62586202590E+01 -0.18740136066E+01 -0.73306483547E+00  0.65741644791E+01  0.00000000000E+00 0. -1.
</event>
<event>
 7    1  0.5972636E-013  0.5052884E+02  0.7816164E-02  0.1300439E+00
        -11   -1    0    0    0    0  0.00000000000E+00  0.00000000000E+00  0.45593999997E+02  0.45594000000E+02  0.51100000000E-03 0. -1.
         11   -1    0    0    0    0 -0.00000000000E+00 -0.00000000000E+00 -0.45593999997E+02  0.45594000000E+02  0.51100000000E-03 0.  1.
    9900012    2    1    2    0    0  0.24435560593E+01 -0.39942274830E+02  0.71979738873E+01  0.50528842202E+02  0.29999946356E+02 0.  0.
         12    1    1    2    0    0 -0.24435560593E+01  0.39942274830E+02 -0.71979738873E+01  0.40659157798E+02  0.00000000000E+00 0. -1.
         11    1    3    3    0    0  0.29947652818E+01 -0.43998953546E+02  0.38839092643E+01  0.44271449984E+02  0.51100000000E-03 0.  1.
        -11    1    3    3    0    0 -0.55473008906E+00  0.45576156715E+01  0.23197389643E+01  0.51440038107E+01  0.51100000000E-03 0. -1.
        -12    1    3    3    0    0  0.35208665159E-02 -0.50093695534E+00  0.99432565882E+00  0.11133884073E+01  0.00000000000E+00 0.  1.
</event>
<event>
 7    1  0.5972636E-013  0.5052892E+02  0.7816164E-02  0.1300439E+00
        -11   -1    0    0    0    0  0.00000000000E+00  0.00000000000E+00  0.45593999997E+02  0.45594000000E+02  0.51100000000E-03 0.  1.
         11   -1    0    0    0    0 -0.00000000000E+00 -0.00000000000E+00 -0.45593999997E+02  0.45594000000E+02  0.51100000000E-03 0. -1.
    9900012    2    1    2    0    0  0.18661992686E+02  0.21710225212E+02  0.28871384696E+02  0.50528921014E+02  0.30000185914E+02 0.  0.
         12    1    1    2    0    0 -0.18661992686E+02 -0.21710225212E+02 -0.28871384696E+02  0.40659078986E+02  0.00000000000E+00 0. -1.
         11    1    3    3    0    0 -0.29944624835E+01 -0.12148462431E+01 -0.18870279668E+01  0.37421293093E+01  0.51100000000E-03 0. -1.
        -11    1    3    3    0    0  0.11938287442E+02  0.84683887370E+01  0.23981773019E+02  0.28095582433E+02  0.51100000000E-03 0.  1.
        -12    1    3    3    0    0  0.97181677269E+01  0.14456682718E+02  0.67766396431E+01  0.18691209271E+02  0.00000000000E+00 0.  1.
</event>
<event>
 7    1  0.5972636E-013  0.5052885E+02  0.7816164E-02  0.1300439E+00
        -11   -1    0    0    0    0  0.00000000000E+00  0.00000000000E+00  0.45593999997E+02  0.45594000000E+02  0.51100000000E-03 0. -1.
         11   -1    0    0    0    0 -0.00000000000E+00 -0.00000000000E+00 -0.45593999997E+02  0.45594000000E+02  0.51100000000E-03 0.  1.
    9900012    2    1    2    0    0  0.11045598780E+02 -0.35431003951E+02  0.16607381592E+02  0.50528850762E+02  0.29999972377E+02 0.  0.
         12    1    1    2    0    0 -0.11045598780E+02  0.35431003951E+02 -0.16607381592E+02  0.40659149238E+02  0.00000000000E+00 0. -1.
         11    1    3    3    0    0  0.12434955066E+01 -0.12545627653E+01 -0.60870093728E+01  0.63381300217E+01  0.51100000000E-03 0. -1.
        -11    1    3    3    0    0  0.12621744432E+02 -0.24350099108E+02  0.14120839238E+02  0.30848563339E+02  0.51100000000E-03 0.  1.
         12    1    3    3    0    0 -0.28196411589E+01 -0.98263420781E+01  0.85735517270E+01  0.13342157401E+02  0.00000000000E+00 0. -1.
</event>
<event>
 7    1  0.5972636E-013  0.5052885E+02  0.7816164E-02  0.1300439E+00
        -11   -1    0    0    0    0  0.00000000000E+00  0.00000000000E+00  0.45593999997E+02  0.45594000000E+02  0.51100000000E-03 0.  1.
         11   -1    0    0    0    0 -0.00000000000E+00 -0.00000000000E+00 -0.45593999997E+02  0.45594000000E+02  0.51100000000E-03 0. -1.
    9900012    2    1    2    0    0  0.14882528482E+02  0.25151210642E+02  0.28268244556E+02  0.50528847266E+02  0.29999961750E+02 0.  0.
         12    1    1    2    0    0 -0.14882528482E+02 -0.25151210642E+02 -0.28268244556E+02  0.40659152734E+02  0.00000000000E+00 0. -1.
         11    1    3    3    0    0  0.32043453335E+00  0.11668303011E+02  0.26223741937E+02  0.28704296105E+02  0.51100000000E-03 0. -1.
        -11    1    3    3    0    0  0.74469496209E+01  0.12493779289E+02  0.13250150340E+01  0.14605041755E+02  0.51100000000E-03 0.  1.
         12    1    3    3    0    0  0.71151443274E+01  0.98912834258E+00  0.71948758460E+00  0.72195094059E+01  0.00000000000E+00 0. -1.
</event>
<event>
 7    1  0.5972636E-013  0.5052886E+02  0.7816164E-02  0.1300439E+00
        -11   -1    0    0    0    0  0.00000000000E+00  0.00000000000E+00  0.45593999997E+02  0.45594000000E+02  0.51100000000E-03 0.  1.
         11   -1    0    0    0    0 -0.00000000000E+00 -0.00000000000E+00 -0.45593999997E+02  0.45594000000E+02  0.51100000000E-03 0. -1.
    9900012    2    1    2    0    0 -0.34318411612E+02 -0.19086818418E+02  0.10540649977E+02  0.50528864313E+02  0.30000013566E+02 0.  0.
         12    1    1    2    0    0  0.34318411612E+02  0.19086818418E+02 -0.10540649977E+02  0.40659135687E+02  0.00000000000E+00 0. -1.
         11    1    3    3    0    0  0.39808239159E+01 -0.19965876729E+01  0.37823576438E-01  0.44536223761E+01  0.51100000000E-03 0. -1.
        -11    1    3    3    0    0 -0.39840158019E+02 -0.16258817561E+02  0.95319953356E+01  0.44073192246E+02  0.51100000000E-03 0.  1.
        -12    1    3    3    0    0  0.15409224911E+01 -0.83141318446E+00  0.97083106548E+00  0.20020496908E+01  0.00000000000E+00 0.  1.
</event>
<event>
 7    1  0.5972636E-013  0.5052886E+02  0.7816164E-02  0.1300439E+00
        -11   -1    0    0    0    0  0.00000000000E+00  0.00000000000E+00  0.45593999997E+02  0.45594000000E+02  0.51100000000E-03 0.  1.
         11   -1    0    0    0    0 -0.00000000000E+00 -0.00000000000E+00 -0.45593999997E+02  0.45594000000E+02  0.51100000000E-03 0. -1.
    9900012    2    1    2    0    0 -0.53145387430E+01 -0.39033494854E+02  0.10065188630E+02  0.50528855091E+02  0.29999985535E+02 0.  0.
         12    1    1    2    0    0  0.53145387430E+01  0.39033494854E+02 -0.10065188630E+02  0.40659144909E+02  0.00000000000E+00 0. -1.
         11    1    3    3    0    0 -0.31743541390E+01 -0.61382997245E+01  0.73581010131E+01  0.10094399362E+02  0.51100000000E-03 0. -1.
        -11    1    3    3    0    0  0.54289128558E+01 -0.31682778076E+02 -0.44113696295E+00  0.32147567925E+02  0.51100000000E-03 0.  1.
        -12    1    3    3    0    0 -0.75690974598E+01 -0.12124170535E+01  0.31482245801E+01  0.82868878039E+01  0.00000000000E+00 0.  1.
</event>
<event>
 7    1  0.1533674E-012  0.5052886E+02  0.7816164E-02  0.1300439E+00
        -11   -1    0    0    0    0  0.00000000000E+00  0.00000000000E+00  0.45593999997E+02  0.45594000000E+02  0.51100000000E-03 0. -1.
         11   -1    0    0    0    0 -0.00000000000E+00 -0.00000000000E+00 -0.45593999997E+02  0.45594000000E+02  0.51100000000E-03 0.  1.
    9900012    2    1    2    0    0  0.36049579481E+02 -0.12242823545E+01 -0.18764190590E+02  0.50528857160E+02  0.29999991822E+02 0.  0.
         12    1    1    2    0    0 -0.36049579481E+02  0.12242823545E+01  0.18764190590E+02  0.40659142840E+02  0.00000000000E+00 0. -1.
         11    1    3    3    0    0  0.72346685443E+00  0.33891714440E+01  0.27762804348E+01  0.44404527562E+01  0.51100000000E-03 0. -1.
        -11    1    3    3    0    0  0.23329082650E+02 -0.11220192731E+02 -0.86870377202E+01  0.27305740181E+02  0.51100000000E-03 0.  1.
        -12    1    3    3    0    0  0.11997029976E+02  0.66067389329E+01 -0.12853433304E+02  0.18782664222E+02  0.00000000000E+00 0.  1.
</event>
<event>
 7    1  0.5972636E-013  0.5052887E+02  0.7816164E-02  0.1300439E+00
        -11   -1    0    0    0    0  0.00000000000E+00  0.00000000000E+00  0.45593999997E+02  0.45594000000E+02  0.51100000000E-03 0. -1.
         11   -1    0    0    0    0 -0.00000000000E+00 -0.00000000000E+00 -0.45593999997E+02  0.45594000000E+02  0.51100000000E-03 0.  1.
    9900012    2    1    2    0    0  0.10077531592E+02 -0.43648469167E+01 -0.39147881743E+02  0.50528866013E+02  0.30000018732E+02 0.  0.
         12    1    1    2    0    0 -0.10077531592E+02  0.43648469167E+01  0.39147881743E+02  0.40659133987E+02  0.00000000000E+00 0. -1.
         11    1    3    3    0    0  0.12754911680E+02 -0.13271634193E+01 -0.47123278744E+01  0.13662180242E+02  0.51100000000E-03 0. -1.
        -11    1    3    3    0    0 -0.15674055894E+01 -0.59116024949E+01 -0.71546533167E+01  0.94123784818E+01  0.51100000000E-03 0.  1.
         12    1    3    3    0    0 -0.11099744984E+01  0.28739189975E+01 -0.27280900552E+02  0.27454307289E+02  0.00000000000E+00 0. -1.
</event>
<event>
 7    1  0.5972636E-013  0.5052886E+02  0.7816164E-02  0.1300439E+00
        -11   -1    0    0    0    0  0.00000000000E+00  0.00000000000E+00  0.45593999997E+02  0.45594000000E+02  0.51100000000E-03 0.  1.
         11   -1    0    0    0    0 -0.00000000000E+00 -0.00000000000E+00 -0.45593999997E+02  0.45594000000E+02  0.51100000000E-03 0. -1.
    9900012    2    1    2    0    0  0.21167824640E+02  0.31814839919E+02  0.13889014515E+02  0.50528861258E+02  0.30000004280E+02 0.  0.
         12    1    1    2    0    0 -0.21167824640E+02 -0.31814839919E+02 -0.13889014515E+02  0.40659138742E+02  0.00000000000E+00 0. -1.
         11    1    3    3    0    0  0.29454694807E+01  0.10474154944E+01 -0.33754051313E+01  0.46006770960E+01  0.51100000000E-03 0. -1.
        -11    1    3    3    0    0  0.21498661348E+02  0.32032090582E+02  0.13737001271E+02  0.40950610142E+02  0.51100000000E-03 0.  1.
        -12    1    3    3    0    0 -0.32763061891E+01 -0.12646661575E+01  0.35274183755E+01  0.49775740206E+01  0.00000000000E+00 0.  1.
</event>
<event>
 7    1  0.5972636E-013  0.5052884E+02  0.7816164E-02  0.1300439E+00
        -11   -1    0    0    0    0  0.00000000000E+00  0.00000000000E+00  0.45593999997E+02  0.45594000000E+02  0.51100000000E-03 0. -1.
         11   -1    0    0    0    0 -0.00000000000E+00 -0.00000000000E+00 -0.45593999997E+02  0.45594000000E+02  0.51100000000E-03 0.  1.
    9900012    2    1    2    0    0  0.22719582413E+02 -0.19935769634E+02 -0.27194723914E+02  0.50528839352E+02  0.29999937693E+02 0.  0.
         12    1    1    2    0    0 -0.22719582413E+02  0.19935769634E+02  0.27194723914E+02  0.40659160648E+02  0.00000000000E+00 0. -1.
         11    1    3    3    0    0  0.99205148559E+01 -0.12914645118E+01 -0.18299952923E+02  0.20856000883E+02  0.51100000000E-03 0.  1.
        -11    1    3    3    0    0 -0.40125152980E+00 -0.11558515817E+02  0.11694013861E+01  0.11624447967E+02  0.51100000000E-03 0. -1.
         12    1    3    3    0    0  0.13200319087E+02 -0.70857893054E+01 -0.10064172377E+02  0.18048390501E+02  0.00000000000E+00 0. -1.
</event>
<event>
 7    1  0.5972636E-013  0.5052886E+02  0.7816164E-02  0.1300439E+00
        -11   -1    0    0    0    0  0.00000000000E+00  0.00000000000E+00  0.45593999997E+02  0.45594000000E+02  0.51100000000E-03 0.  1.
         11   -1    0    0    0    0 -0.00000000000E+00 -0.00000000000E+00 -0.45593999997E+02  0.45594000000E+02  0.51100000000E-03 0. -1.
    9900012    2    1    2    0    0 -0.34579925914E+02 -0.19093786610E+02  0.96344220277E+01  0.50528855259E+02  0.29999986044E+02 0.  0.
         12    1    1    2    0    0  0.34579925914E+02  0.19093786610E+02 -0.96344220277E+01  0.40659144741E+02  0.00000000000E+00 0. -1.
         11    1    3    3    0    0 -0.29628569028E+02 -0.11142352549E+02 -0.25918983059E+01  0.31760385074E+02  0.51100000000E-03 0. -1.
        -11    1    3    3    0    0 -0.76766990307E+01 -0.23932101835E+01  0.72249761249E+01  0.10810154636E+02  0.51100000000E-03 0.  1.
         12    1    3    3    0    0  0.27253421450E+01 -0.55582238773E+01  0.50013442087E+01  0.79583155486E+01  0.00000000000E+00 0. -1.
</event>
<event>
 7    1  0.5972636E-013  0.5052886E+02  0.7816164E-02  0.1300439E+00
        -11   -1    0    0    0    0  0.00000000000E+00  0.00000000000E+00  0.45593999997E+02  0.45594000000E+02  0.51100000000E-03 0.  1.
         11   -1    0    0    0    0 -0.00000000000E+00 -0.00000000000E+00 -0.45593999997E+02  0.45594000000E+02  0.51100000000E-03 0. -1.
    9900012    2    1    2    0    0  0.10817312188E+02 -0.70465685246E+00  0.39187428181E+02  0.50528864352E+02  0.30000013684E+02 0.  0.
         12    1    1    2    0    0 -0.10817312188E+02  0.70465685246E+00 -0.39187428181E+02  0.40659135648E+02  0.00000000000E+00 0. -1.
         11    1    3    3    0    0  0.15953470782E+02 -0.58121440970E+01  0.33264749243E+02  0.37347527247E+02  0.51100000000E-03 0. -1.
        -11    1    3    3    0    0 -0.50147688040E+01  0.68571100718E+01  0.70979165414E+01  0.11070152853E+02  0.51100000000E-03 0.  1.
         12    1    3    3    0    0 -0.12138979008E+00 -0.17496228273E+01 -0.11752376041E+01  0.21111842518E+01  0.00000000000E+00 0. -1.
</event>
<event>
 7    1  0.5972636E-013  0.5052886E+02  0.7816164E-02  0.1300439E+00
        -11   -1    0    0    0    0  0.00000000000E+00  0.00000000000E+00  0.45593999997E+02  0.45594000000E+02  0.51100000000E-03 0. -1.
         11   -1    0    0    0    0 -0.00000000000E+00 -0.00000000000E+00 -0.45593999997E+02  0.45594000000E+02  0.51100000000E-03 0.  1.
    9900012    2    1    2    0    0  0.10579098555E+02 -0.34182326000E+02 -0.19308459127E+02  0.50528864115E+02  0.30000012965E+02 0.  0.
         12    1    1    2    0    0 -0.10579098555E+02  0.34182326000E+02  0.19308459127E+02  0.40659135885E+02  0.00000000000E+00 0. -1.
         11    1    3    3    0    0  0.10366106697E+02 -0.16979095209E+02  0.41066968810E+01  0.20312823578E+02  0.51100000000E-03 0. -1.
        -11    1    3    3    0    0  0.99303443414E-01 -0.72440287499E+01 -0.16700422235E+02  0.18204118127E+02  0.51100000000E-03 0.  1.
         12    1    3    3    0    0  0.11368841493E+00 -0.99592020409E+01 -0.67147337737E+01  0.12011922411E+02  0.00000000000E+00 0. -1.
</event>
<event>
 7    1  0.5972636E-013  0.5052886E+02  0.7816164E-02  0.1300439E+00
        -11   -1    0    0    0    0  0.00000000000E+00  0.00000000000E+00  0.45593999997E+02  0.45594000000E+02  0.51100000000E-03 0.  1.
         11   -1    0    0    0    0 -0.00000000000E+00 -0.00000000000E+00 -0.45593999997E+02  0.45594000000E+02  0.51100000000E-03 0. -1.
    9900012    2    1    2    0    0 -0.11019792037E+02 -0.25980433270E+01  0.39050988163E+02  0.50528864222E+02  0.30000013289E+02 0.  0.
         12    1    1    2    0    0  0.11019792037E+02  0.25980433270E+01 -0.39050988163E+02  0.40659135778E+02  0.00000000000E+00 0. -1.
         11    1    3    3    0    0 -0.11836852455E+02 -0.72283810710E+01  0.44382403120E+01  0.14562230127E+02  0.51100000000E-03 0. -1.
        -11    1    3    3    0    0 -0.10263329152E+01  0.19842314636E+01  0.31167864165E+02  0.31247820574E+02  0.51100000000E-03 0.  1.
         12    1    3    3    0    0  0.18433933336E+01  0.26461062804E+01  0.34448836867E+01  0.47188135208E+01  0.00000000000E+00 0. -1.
</event>
<event>
 7    1  0.5972636E-013  0.5052886E+02  0.7816164E-02  0.1300439E+00
        -11   -1    0    0    0    0  0.00000000000E+00  0.00000000000E+00  0.45593999997E+02  0.45594000000E+02  0.51100000000E-03 0.  1.
         11   -1    0    0    0    0 -0.00000000000E+00 -0.00000000000E+00 -0.45593999997E+02  0.45594000000E+02  0.51100000000E-03 0. -1.
    9900012    2    1    2    0    0  0.99866901673E+01  0.31835008720E+02  0.23237129183E+02  0.50528856706E+02  0.29999990444E+02 0.  0.
         12    1    1    2    0    0 -0.99866901673E+01 -0.31835008720E+02 -0.23237129183E+02  0.40659143294E+02  0.00000000000E+00 0. -1.
         11    1    3    3    0    0  0.22035216842E+01 -0.30187303664E+01 -0.16201680736E+01  0.40734734177E+01  0.51100000000E-03 0. -1.
        -11    1    3    3    0    0  0.14412130791E+01  0.12996178843E+02  0.18806922951E+02  0.22905853200E+02  0.51100000000E-03 0.  1.
        -12    1    3    3    0    0  0.63419554041E+01  0.21857560244E+02  0.60503743055E+01  0.23549530089E+02  0.00000000000E+00 0.  1.
</event>
<event>
 7    1  0.5972636E-013  0.5052882E+02  0.7816164E-02  0.1300439E+00
        -11   -1    0    0    0    0  0.00000000000E+00  0.00000000000E+00  0.45593999997E+02  0.45594000000E+02  0.51100000000E-03 0.  1.
         11   -1    0    0    0    0 -0.00000000000E+00 -0.00000000000E+00 -0.45593999997E+02  0.45594000000E+02  0.51100000000E-03 0. -1.
    9900012    2    1    2    0    0  0.38446209682E+01  0.39677517913E+02  0.80051476843E+01  0.50528819885E+02  0.29999878523E+02 0.  0.
         12    1    1    2    0    0 -0.38446209682E+01 -0.39677517913E+02 -0.80051476843E+01  0.40659180115E+02  0.00000000000E+00 0. -1.
         11    1    3    3    0    0  0.39675432710E+01  0.65431717228E+01 -0.87687752868E+01  0.11638123392E+02  0.51100000000E-03 0. -1.
        -11    1    3    3    0    0 -0.25677507970E+01  0.64834366552E+01  0.82519221224E+01  0.10803819417E+02  0.51100000000E-03 0.  1.
         12    1    3    3    0    0  0.24448284942E+01  0.26650909535E+02  0.85220008486E+01  0.28086877076E+02  0.00000000000E+00 0. -1.
</event>
<event>
 7    1  0.5972636E-013  0.5052886E+02  0.7816164E-02  0.1300439E+00
        -11   -1    0    0    0    0  0.00000000000E+00  0.00000000000E+00  0.45593999997E+02  0.45594000000E+02  0.51100000000E-03 0.  1.
         11   -1    0    0    0    0 -0.00000000000E+00 -0.00000000000E+00 -0.45593999997E+02  0.45594000000E+02  0.51100000000E-03 0. -1.
    9900012    2    1    2    0    0  0.40463309072E+02  0.18887203595E+01  0.35098414047E+01  0.50528860409E+02  0.30000001698E+02 0.  0.
         12    1    1    2    0    0 -0.40463309072E+02 -0.18887203595E+01 -0.35098414047E+01  0.40659139591E+02  0.00000000000E+00 0. -1.
         11    1    3    3    0    0  0.31243712453E+01  0.59044161126E+01  0.26336545084E+01  0.71805265573E+01  0.51100000000E-03 0.  1.
        -11    1    3    3    0    0  0.35467586382E+02 -0.25624999877E+01 -0.60114411408E+01  0.36064574236E+02  0.51100000000E-03 0. -1.
        -12    1    3    3    0    0  0.18713514443E+01 -0.14531957655E+01  0.68876280371E+01  0.72837596156E+01  0.00000000000E+00 0.  1.
</event>
<event>
 7    1  0.5972636E-013  0.5052887E+02  0.7816164E-02  0.1300439E+00
        -11   -1    0    0    0    0  0.00000000000E+00  0.00000000000E+00  0.45593999997E+02  0.45594000000E+02  0.51100000000E-03 0. -1.
         11   -1    0    0    0    0 -0.00000000000E+00 -0.00000000000E+00 -0.45593999997E+02  0.45594000000E+02  0.51100000000E-03 0.  1.
    9900012    2    1    2    0    0  0.99482042215E+01 -0.31585284131E+02  0.23591688964E+02  0.50528871517E+02  0.30000035462E+02 0.  0.
         12    1    1    2    0    0 -0.99482042215E+01  0.31585284131E+02 -0.23591688964E+02  0.40659128483E+02  0.00000000000E+00 0. -1.
         11    1    3    3    0    0  0.69788851653E+01 -0.59548705550E+01  0.19207007790E+02  0.21285546035E+02  0.51100000000E-03 0. -1.
        -11    1    3    3    0    0  0.15068008479E+01 -0.71634230457E+01 -0.46094271334E+01  0.86505431787E+01  0.51100000000E-03 0.  1.
         12    1    3    3    0    0  0.14625182083E+01 -0.18466990530E+02  0.89941083067E+01  0.20592782303E+02  0.00000000000E+00 0. -1.
</event>
<event>
 7    1  0.5972636E-013  0.5052886E+02  0.7816164E-02  0.1300439E+00
        -11   -1    0    0    0    0  0.00000000000E+00  0.00000000000E+00  0.45593999997E+02  0.45594000000E+02  0.51100000000E-03 0.  1.
         11   -1    0    0    0    0 -0.00000000000E+00 -0.00000000000E+00 -0.45593999997E+02  0.45594000000E+02  0.51100000000E-03 0. -1.
    9900012    2    1    2    0    0 -0.23832366191E+02  0.12765341129E+02  0.30368237556E+02  0.50528862470E+02  0.30000007964E+02 0.  0.
         12    1    1    2    0    0  0.23832366191E+02 -0.12765341129E+02 -0.30368237556E+02  0.40659137530E+02  0.00000000000E+00 0. -1.
         11    1    3    3    0    0 -0.24989415304E+02  0.48300396375E+01  0.27542509765E+02  0.37501866681E+02  0.51100000000E-03 0.  1.
        -11    1    3    3    0    0  0.17052285051E+01 -0.20782048693E+01  0.57908463462E+00  0.27499234551E+01  0.51100000000E-03 0. -1.
         12    1    3    3    0    0 -0.54817939241E+00  0.10013506361E+02  0.22466431559E+01  0.10277072334E+02  0.00000000000E+00 0. -1.
</event>
<event>
 7    1  0.5972636E-013  0.5052886E+02  0.7816164E-02  0.1300439E+00
        -11   -1    0    0    0    0  0.00000000000E+00  0.00000000000E+00  0.45593999997E+02  0.45594000000E+02  0.51100000000E-03 0. -1.
         11   -1    0    0    0    0 -0.00000000000E+00 -0.00000000000E+00 -0.45593999997E+02  0.45594000000E+02  0.51100000000E-03 0.  1.
    9900012    2    1    2    0    0 -0.23552471178E+02 -0.11701665321E+02 -0.31008355114E+02  0.50528856419E+02  0.29999989571E+02 0.  0.
         12    1    1    2    0    0  0.23552471178E+02  0.11701665321E+02  0.31008355114E+02  0.40659143581E+02  0.00000000000E+00 0. -1.
         11    1    3    3    0    0  0.41950307917E+01 -0.80676596317E+01 -0.14776983373E+02  0.17350638408E+02  0.51100000000E-03 0. -1.
        -11    1    3    3    0    0 -0.23993874905E+02 -0.39406289423E+01 -0.16527352196E+02  0.29400475511E+02  0.51100000000E-03 0.  1.
         12    1    3    3    0    0 -0.37536270653E+01  0.30662325280E+00  0.29598045626E+00  0.37777424998E+01  0.00000000000E+00 0. -1.
</event>
<event>
 7    1  0.5972636E-013  0.5052886E+02  0.7816164E-02  0.1300439E+00
        -11   -1    0    0    0    0  0.00000000000E+00  0.00000000000E+00  0.45593999997E+02  0.45594000000E+02  0.51100000000E-03 0. -1.
         11   -1    0    0    0    0 -0.00000000000E+00 -0.00000000000E+00 -0.45593999997E+02  0.45594000000E+02  0.51100000000E-03 0.  1.
    9900012    2    1    2    0    0 -0.24615618145E+02  0.24355077811E+02 -0.21308852822E+02  0.50528859817E+02  0.29999999901E+02 0.  0.
         12    1    1    2    0    0  0.24615618145E+02 -0.24355077811E+02  0.21308852822E+02  0.40659140183E+02  0.00000000000E+00 0. -1.
         11    1    3    3    0    0  0.44893732516E+01  0.37288686738E+01  0.29088048719E+01  0.65207422754E+01  0.51100000000E-03 0. -1.
        -11    1    3    3    0    0 -0.17604790692E+02  0.10619538190E+02 -0.18712134213E+02  0.27800129743E+02  0.51100000000E-03 0.  1.
         12    1    3    3    0    0 -0.11500200704E+02  0.10006670947E+02 -0.55055234802E+01  0.16207987799E+02  0.00000000000E+00 0. -1.
</event>
<event>
 7    1  0.5972636E-013  0.5052886E+02  0.7816164E-02  0.1300439E+00
        -11   -1    0    0    0    0  0.00000000000E+00  0.00000000000E+00  0.45593999997E+02  0.45594000000E+02  0.51100000000E-03 0.  1.
         11   -1    0    0    0    0 -0.00000000000E+00 -0.00000000000E+00 -0.45593999997E+02  0.45594000000E+02  0.51100000000E-03 0. -1.
    9900012    2    1    2    0    0 -0.19366184414E+02  0.30716625810E+00  0.35749437633E+02  0.50528859073E+02  0.29999997637E+02 0.  0.
         12    1    1    2    0    0  0.19366184414E+02 -0.30716625810E+00 -0.35749437633E+02  0.40659140927E+02  0.00000000000E+00 0. -1.
         11    1    3    3    0    0 -0.42772530117E+01 -0.16707060360E+01 -0.23970615460E+01  0.51799668243E+01  0.51100000000E-03 0. -1.
        -11    1    3    3    0    0 -0.83621749528E+01  0.55118320637E+01  0.36122746571E+02  0.37485451614E+02  0.51100000000E-03 0.  1.
        -12    1    3    3    0    0 -0.67267564497E+01 -0.35339597696E+01  0.20237526083E+01  0.78634406341E+01  0.00000000000E+00 0.  1.
</event>
<event>
 7    1  0.5972636E-013  0.5052886E+02  0.7816164E-02  0.1300439E+00
        -11   -1    0    0    0    0  0.00000000000E+00  0.00000000000E+00  0.45593999997E+02  0.45594000000E+02  0.51100000000E-03 0.  1.
         11   -1    0    0    0    0 -0.00000000000E+00 -0.00000000000E+00 -0.45593999997E+02  0.45594000000E+02  0.51100000000E-03 0. -1.
    9900012    2    1    2    0    0 -0.27815777782E+00  0.16166876194E+02  0.37305767667E+02  0.50528861312E+02  0.30000004444E+02 0.  0.
         12    1    1    2    0    0  0.27815777782E+00 -0.16166876194E+02 -0.37305767667E+02  0.40659138688E+02  0.00000000000E+00 0. -1.
         11    1    3    3    0    0 -0.87654767775E+01 -0.53720573076E+00  0.24642839344E+02  0.26160881184E+02  0.51100000000E-03 0. -1.
        -11    1    3    3    0    0  0.56206980227E+01  0.11927861931E+02  0.34962437802E+01  0.13641475629E+02  0.51100000000E-03 0.  1.
        -12    1    3    3    0    0  0.28666209769E+01  0.47762199939E+01  0.91666845423E+01  0.10726504498E+02  0.00000000000E+00 0.  1.
</event>
<event>
 7    1  0.5972636E-013  0.5052887E+02  0.7816164E-02  0.1300439E+00
        -11   -1    0    0    0    0  0.00000000000E+00  0.00000000000E+00  0.45593999997E+02  0.45594000000E+02  0.51100000000E-03 0. -1.
         11   -1    0    0    0    0 -0.00000000000E+00 -0.00000000000E+00 -0.45593999997E+02  0.45594000000E+02  0.51100000000E-03 0.  1.
    9900012    2    1    2    0    0  0.38318908230E+00 -0.36613222789E+02 -0.17677395433E+02  0.50528865403E+02  0.30000016879E+02 0.  0.
         12    1    1    2    0    0 -0.38318908230E+00  0.36613222789E+02  0.17677395433E+02  0.40659134597E+02  0.00000000000E+00 0. -1.
         11    1    3    3    0    0 -0.44934540766E-01  0.24717044285E+01  0.28555893396E+01  0.37770004809E+01  0.51100000000E-03 0. -1.
        -11    1    3    3    0    0  0.77342370953E+01 -0.24438758458E+02 -0.12676711949E+02  0.28596684502E+02  0.51100000000E-03 0.  1.
         12    1    3    3    0    0 -0.73061134722E+01 -0.14646168760E+02 -0.78562728230E+01  0.18155180420E+02  0.00000000000E+00 0. -1.
</event>
<event>
 7    1  0.5972636E-013  0.5052886E+02  0.7816164E-02  0.1300439E+00
        -11   -1    0    0    0    0  0.00000000000E+00  0.00000000000E+00  0.45593999997E+02  0.45594000000E+02  0.51100000000E-03 0.  1.
         11   -1    0    0    0    0 -0.00000000000E+00 -0.00000000000E+00 -0.45593999997E+02  0.45594000000E+02  0.51100000000E-03 0. -1.
    9900012    2    1    2    0    0 -0.70423520137E+01  0.23752791727E+02  0.32239349256E+02  0.50528862317E+02  0.30000007498E+02 0.  0.
         12    1    1    2    0    0  0.70423520137E+01 -0.23752791727E+02 -0.32239349256E+02  0.40659137683E+02  0.00000000000E+00 0. -1.
         11    1    3    3    0    0 -0.78697041331E+01  0.20215267883E+02  0.33145693613E+02  0.39613461148E+02  0.51100000000E-03 0.  1.
        -11    1    3    3    0    0  0.39184555920E+01  0.50185056255E+01 -0.28491840220E+01  0.69754958815E+01  0.51100000000E-03 0. -1.
        -12    1    3    3    0    0 -0.30911034725E+01 -0.14809817817E+01  0.19428396645E+01  0.39399052879E+01  0.00000000000E+00 0.  1.
</event>
<event>
 7    1  0.5972636E-013  0.5052882E+02  0.7816164E-02  0.1300439E+00
        -11   -1    0    0    0    0  0.00000000000E+00  0.00000000000E+00  0.45593999997E+02  0.45594000000E+02  0.51100000000E-03 0.  1.
         11   -1    0    0    0    0 -0.00000000000E+00 -0.00000000000E+00 -0.45593999997E+02  0.45594000000E+02  0.51100000000E-03 0. -1.
    9900012    2    1    2    0    0  0.24296545829E+02  0.48475761654E+01  0.32238911143E+02  0.50528824829E+02  0.29999893550E+02 0.  0.
         12    1    1    2    0    0 -0.24296545829E+02 -0.48475761654E+01 -0.32238911143E+02  0.40659175171E+02  0.00000000000E+00 0. -1.
         11    1    3    3    0    0  0.11924208580E+02  0.65795041269E+01  0.31032410229E+01  0.13968061065E+02  0.51100000000E-03 0. -1.
        -11    1    3    3    0    0  0.13224553143E+01 -0.81898457839E+01  0.17033759642E+02  0.18946541369E+02  0.51100000000E-03 0.  1.
        -12    1    3    3    0    0  0.11049881935E+02  0.64579178224E+01  0.12101910478E+02  0.17614222395E+02  0.00000000000E+00 0.  1.
</event>
<event>
 7    1  0.5972636E-013  0.5052887E+02  0.7816164E-02  0.1300439E+00
        -11   -1    0    0    0    0  0.00000000000E+00  0.00000000000E+00  0.45593999997E+02  0.45594000000E+02  0.51100000000E-03 0. -1.
         11   -1    0    0    0    0 -0.00000000000E+00 -0.00000000000E+00 -0.45593999997E+02  0.45594000000E+02  0.51100000000E-03 0.  1.
    9900012    2    1    2    0    0  0.22781028571E+02  0.23772141806E+02 -0.23855296797E+02  0.50528866044E+02  0.30000018827E+02 0.  0.
         12    1    1    2    0    0 -0.22781028571E+02 -0.23772141806E+02  0.23855296797E+02  0.40659133956E+02  0.00000000000E+00 0. -1.
         11    1    3    3    0    0  0.15975311961E+02  0.21560032560E+02 -0.10984448980E+02  0.28994891203E+02  0.51100000000E-03 0. -1.
        -11    1    3    3    0    0  0.71348071595E+01 -0.47128801552E+00 -0.15924124711E+02  0.17455810886E+02  0.51100000000E-03 0.  1.
         12    1    3    3    0    0 -0.32909054907E+00  0.26833972617E+01  0.30532768943E+01  0.40781639554E+01  0.00000000000E+00 0. -1.
</event>
<event>
 7    1  0.5972636E-013  0.5052886E+02  0.7816164E-02  0.1300439E+00
        -11   -1    0    0    0    0  0.00000000000E+00  0.00000000000E+00  0.45593999997E+02  0.45594000000E+02  0.51100000000E-03 0.  1.
         11   -1    0    0    0    0 -0.00000000000E+00 -0.00000000000E+00 -0.45593999997E+02  0.45594000000E+02  0.51100000000E-03 0. -1.
    9900012    2    1    2    0    0 -0.19155345280E+02  0.95463539720E+01  0.34570300774E+02  0.50528858069E+02  0.29999994587E+02 0.  0.
         12    1    1    2    0    0  0.19155345280E+02 -0.95463539720E+01 -0.34570300774E+02  0.40659141931E+02  0.00000000000E+00 0. -1.
         11    1    3    3    0    0 -0.16734261918E+02 -0.64274494852E+01  0.14502317539E+02  0.23057858597E+02  0.51100000000E-03 0. -1.
        -11    1    3    3    0    0 -0.47304864194E+01  0.12122727001E+02  0.98844243145E+01  0.16341354166E+02  0.51100000000E-03 0.  1.
         12    1    3    3    0    0  0.23094030570E+01  0.38510764565E+01  0.10183558920E+02  0.11129645306E+02  0.00000000000E+00 0. -1.
</event>
<event>
 7    1  0.5972636E-013  0.5052886E+02  0.7816164E-02  0.1300439E+00
        -11   -1    0    0    0    0  0.00000000000E+00  0.00000000000E+00  0.45593999997E+02  0.45594000000E+02  0.51100000000E-03 0.  1.
         11   -1    0    0    0    0 -0.00000000000E+00 -0.00000000000E+00 -0.45593999997E+02  0.45594000000E+02  0.51100000000E-03 0. -1.
    9900012    2    1    2    0    0 -0.32637696723E+02  0.60095255360E+00  0.24240161699E+02  0.50528857971E+02  0.29999994287E+02 0.  0.
         12    1    1    2    0    0  0.32637696723E+02 -0.60095255360E+00 -0.24240161699E+02  0.40659142029E+02  0.00000000000E+00 0. -1.
         11    1    3    3    0    0 -0.58445034564E+01  0.97377667259E+01  0.49697312744E+01  0.12396795984E+02  0.51100000000E-03 0. -1.
        -11    1    3    3    0    0 -0.13617881199E+02 -0.11361511922E+02  0.17022573686E+02  0.24582486788E+02  0.51100000000E-03 0.  1.
        -12    1    3    3    0    0 -0.13175312068E+02  0.22246977497E+01  0.22478567385E+01  0.13549575199E+02  0.00000000000E+00 0.  1.
</event>
<event>
 7    1  0.5972636E-013  0.5052889E+02  0.7816164E-02  0.1300439E+00
        -11   -1    0    0    0    0  0.00000000000E+00  0.00000000000E+00  0.45593999997E+02  0.45594000000E+02  0.51100000000E-03 0.  1.
         11   -1    0    0    0    0 -0.00000000000E+00 -0.00000000000E+00 -0.45593999997E+02  0.45594000000E+02  0.51100000000E-03 0. -1.
    9900012    2    1    2    0    0 -0.24825356232E+02  0.21514623491E+02  0.23957996494E+02  0.50528893616E+02  0.30000102635E+02 0.  0.
         12    1    1    2    0    0  0.24825356232E+02 -0.21514623491E+02 -0.23957996494E+02  0.40659106384E+02  0.00000000000E+00 0. -1.
         11    1    3    3    0    0  0.12428207155E+01  0.79528426920E+01  0.75316502203E+01  0.11023523281E+02  0.51100000000E-03 0. -1.
        -11    1    3    3    0    0 -0.23901619445E+02  0.20123722092E+01  0.90810672508E+01  0.25647667276E+02  0.51100000000E-03 0.  1.
        -12    1    3    3    0    0 -0.21665575020E+01  0.11549408589E+02  0.73452790225E+01  0.13857703060E+02  0.00000000000E+00 0.  1.
</event>
<event>
 7    1  0.5972636E-013  0.5052885E+02  0.7816164E-02  0.1300439E+00
        -11   -1    0    0    0    0  0.00000000000E+00  0.00000000000E+00  0.45593999997E+02  0.45594000000E+02  0.51100000000E-03 0.  1.
         11   -1    0    0    0    0 -0.00000000000E+00 -0.00000000000E+00 -0.45593999997E+02  0.45594000000E+02  0.51100000000E-03 0. -1.
    9900012    2    1    2    0    0 -0.16817335839E+02 -0.30197486667E+02  0.21411565163E+02  0.50528854553E+02  0.29999983901E+02 0.  0.
         12    1    1    2    0    0  0.16817335839E+02  0.30197486667E+02 -0.21411565163E+02  0.40659145447E+02  0.00000000000E+00 0. -1.
         11    1    3    3    0    0 -0.34463319932E+01 -0.25071560432E+02  0.12327536248E+01  0.25337324809E+02  0.51100000000E-03 0. -1.
        -11    1    3    3    0    0 -0.11557940525E+02 -0.51603879949E+01  0.14587393740E+02  0.19313405961E+02  0.51100000000E-03 0.  1.
         12    1    3    3    0    0 -0.18130633203E+01  0.34461760101E-01  0.55914177982E+01  0.58781237831E+01  0.00000000000E+00 0. -1.
</event>
<event>
 7    1  0.5972636E-013  0.5052885E+02  0.7816164E-02  0.1300439E+00
        -11   -1    0    0    0    0  0.00000000000E+00  0.00000000000E+00  0.45593999997E+02  0.45594000000E+02  0.51100000000E-03 0.  1.
         11   -1    0    0    0    0 -0.00000000000E+00 -0.00000000000E+00 -0.45593999997E+02  0.45594000000E+02  0.51100000000E-03 0. -1.
    9900012    2    1    2    0    0 -0.33347246188E+02 -0.22253955041E+02  0.67741266499E+01  0.50528854224E+02  0.29999982901E+02 0.  0.
         12    1    1    2    0    0  0.33347246188E+02  0.22253955041E+02 -0.67741266499E+01  0.40659145776E+02  0.00000000000E+00 0. -1.
         11    1    3    3    0    0 -0.16962667082E+01 -0.40657272290E+01  0.69160947896E+01  0.81999893930E+01  0.51100000000E-03 0. -1.
        -11    1    3    3    0    0 -0.30172023472E+02 -0.71486286001E+01  0.16320814706E+01  0.31050242856E+02  0.51100000000E-03 0.  1.
        -12    1    3    3    0    0 -0.14789560085E+01 -0.11039599212E+02 -0.17740496103E+01  0.11278621975E+02  0.00000000000E+00 0.  1.
</event>
<event>
 7    1  0.5972636E-013  0.5052886E+02  0.7816164E-02  0.1300439E+00
        -11   -1    0    0    0    0  0.00000000000E+00  0.00000000000E+00  0.45593999997E+02  0.45594000000E+02  0.51100000000E-03 0. -1.
         11   -1    0    0    0    0 -0.00000000000E+00 -0.00000000000E+00 -0.45593999997E+02  0.45594000000E+02  0.51100000000E-03 0.  1.
    9900012    2    1    2    0    0  0.36063171760E+02  0.71130844179E+01 -0.17378648383E+02  0.50528858999E+02  0.29999997412E+02 0.  0.
         12    1    1    2    0    0 -0.36063171760E+02 -0.71130844179E+01  0.17378648383E+02  0.40659141001E+02  0.00000000000E+00 0. -1.
         11    1    3    3    0    0 -0.32575511059E+01  0.45075144744E+01 -0.62974371970E+01  0.84016094563E+01  0.51100000000E-03 0. -1.
        -11    1    3    3    0    0  0.34377235827E+02  0.13705514163E+01 -0.12861204089E+02  0.36729869659E+02  0.51100000000E-03 0.  1.
        -12    1    3    3    0    0  0.49434870397E+01  0.12350185271E+01  0.17799929033E+01  0.53973798838E+01  0.00000000000E+00 0.  1.
</event>
<event>
 7    1  0.5972636E-013  0.5052886E+02  0.7816164E-02  0.1300439E+00
        -11   -1    0    0    0    0  0.00000000000E+00  0.00000000000E+00  0.45593999997E+02  0.45594000000E+02  0.51100000000E-03 0. -1.
         11   -1    0    0    0    0 -0.00000000000E+00 -0.00000000000E+00 -0.45593999997E+02  0.45594000000E+02  0.51100000000E-03 0.  1.
    9900012    2    1    2    0    0  0.26330801986E+02 -0.14663726239E+02 -0.27291561188E+02  0.50528864342E+02  0.30000013653E+02 0.  0.
         12    1    1    2    0    0 -0.26330801986E+02  0.14663726239E+02  0.27291561188E+02  0.40659135658E+02  0.00000000000E+00 0. -1.
         11    1    3    3    0    0  0.11161928388E+02 -0.77418662748E+01 -0.26758249893E+00  0.13586638268E+02  0.51100000000E-03 0. -1.
        -11    1    3    3    0    0  0.71309540079E+01 -0.12238011641E+02 -0.21753335229E+02  0.25958178438E+02  0.51100000000E-03 0.  1.
        -12    1    3    3    0    0  0.80379195900E+01  0.53161516771E+01 -0.52706434601E+01  0.10984047636E+02  0.00000000000E+00 0.  1.
</event>
<event>
 7    1  0.5972636E-013  0.5052886E+02  0.7816164E-02  0.1300439E+00
        -11   -1    0    0    0    0  0.00000000000E+00  0.00000000000E+00  0.45593999997E+02  0.45594000000E+02  0.51100000000E-03 0.  1.
         11   -1    0    0    0    0 -0.00000000000E+00 -0.00000000000E+00 -0.45593999997E+02  0.45594000000E+02  0.51100000000E-03 0. -1.
    9900012    2    1    2    0    0  0.39591786109E+02  0.68682625621E+01 -0.62034520258E+01  0.50528863573E+02  0.30000011317E+02 0.  0.
         12    1    1    2    0    0 -0.39591786109E+02 -0.68682625621E+01  0.62034520258E+01  0.40659136427E+02  0.00000000000E+00 0. -1.
         11    1    3    3    0    0  0.55945379985E+01  0.23281001226E+01 -0.10046436826E+02  0.11732425102E+02  0.51100000000E-03 0. -1.
        -11    1    3    3    0    0  0.22249765951E+02  0.10872311111E+02  0.54438650892E+01  0.25355372234E+02  0.51100000000E-03 0.  1.
        -12    1    3    3    0    0  0.11747482160E+02 -0.63321486720E+01 -0.16008802886E+01  0.13441066237E+02  0.00000000000E+00 0.  1.
</event>
<event>
 7    1  0.5972636E-013  0.5052887E+02  0.7816164E-02  0.1300439E+00
        -11   -1    0    0    0    0  0.00000000000E+00  0.00000000000E+00  0.45593999997E+02  0.45594000000E+02  0.51100000000E-03 0.  1.
         11   -1    0    0    0    0 -0.00000000000E+00 -0.00000000000E+00 -0.45593999997E+02  0.45594000000E+02  0.51100000000E-03 0. -1.
    9900012    2    1    2    0    0  0.34060390205E+02  0.96860151929E+01  0.19980891242E+02  0.50528867126E+02  0.30000022116E+02 0.  0.
         12    1    1    2    0    0 -0.34060390205E+02 -0.96860151929E+01 -0.19980891242E+02  0.40659132874E+02  0.00000000000E+00 0. -1.
         11    1    3    3    0    0  0.96013180442E+01 -0.75324034829E+01  0.58153907885E+01  0.13518179637E+02  0.51100000000E-03 0. -1.
        -11    1    3    3    0    0  0.11973878989E+02  0.14599359662E+02  0.15160808816E+02  0.24214978934E+02  0.51100000000E-03 0.  1.
        -12    1    3    3    0    0  0.12485193172E+02  0.26190590143E+01 -0.99530836327E+00  0.12795708555E+02  0.00000000000E+00 0.  1.
</event>
<event>
 7    1  0.5972636E-013  0.5052886E+02  0.7816164E-02  0.1300439E+00
        -11   -1    0    0    0    0  0.00000000000E+00  0.00000000000E+00  0.45593999997E+02  0.45594000000E+02  0.51100000000E-03 0. -1.
         11   -1    0    0    0    0 -0.00000000000E+00 -0.00000000000E+00 -0.45593999997E+02  0.45594000000E+02  0.51100000000E-03 0.  1.
    9900012    2    1    2    0    0 -0.67880795755E+01  0.39913024604E+02 -0.37467093180E+01  0.50528863412E+02  0.30000010828E+02 0.  0.
         12    1    1    2    0    0  0.67880795755E+01 -0.39913024604E+02  0.37467093180E+01  0.40659136588E+02  0.00000000000E+00 0. -1.
         11    1    3    3    0    0 -0.10696884202E+02  0.18929266758E+02  0.93467932743E+01  0.23666495651E+02  0.51100000000E-03 0. -1.
        -11    1    3    3    0    0  0.67826706453E+00  0.40393794557E+01 -0.78148394110E+01  0.88231710784E+01  0.51100000000E-03 0.  1.
         12    1    3    3    0    0  0.32305375623E+01  0.16944378390E+02 -0.52786631813E+01  0.18039196683E+02  0.00000000000E+00 0. -1.
</event>
<event>
 7    1  0.5972636E-013  0.5052891E+02  0.7816164E-02  0.1300439E+00
        -11   -1    0    0    0    0  0.00000000000E+00  0.00000000000E+00  0.45593999997E+02  0.45594000000E+02  0.51100000000E-03 0.  1.
         11   -1    0    0    0    0 -0.00000000000E+00 -0.00000000000E+00 -0.45593999997E+02  0.45594000000E+02  0.51100000000E-03 0. -1.
    9900012    2    1    2    0    0  0.29086915885E+02 -0.26914140582E+02  0.90962678625E+01  0.50528908422E+02  0.30000147638E+02 0.  0.
         12    1    1    2    0    0 -0.29086915885E+02  0.26914140582E+02 -0.90962678625E+01  0.40659091578E+02  0.00000000000E+00 0. -1.
         11    1    3    3    0    0  0.49223325334E+01  0.26250075711E+01  0.77143782698E+01  0.95200658963E+01  0.51100000000E-03 0. -1.
        -11    1    3    3    0    0  0.21438159409E+02 -0.14965547942E+02  0.36494927522E+00  0.26147571441E+02  0.51100000000E-03 0.  1.
         12    1    3    3    0    0  0.27264239427E+01 -0.14573600211E+02  0.10169403174E+01  0.14861271084E+02  0.00000000000E+00 0. -1.
</event>
<event>
 7    1  0.5972636E-013  0.5052885E+02  0.7816164E-02  0.1300439E+00
        -11   -1    0    0    0    0  0.00000000000E+00  0.00000000000E+00  0.45593999997E+02  0.45594000000E+02  0.51100000000E-03 0. -1.
         11   -1    0    0    0    0 -0.00000000000E+00 -0.00000000000E+00 -0.45593999997E+02  0.45594000000E+02  0.51100000000E-03 0.  1.
    9900012    2    1    2    0    0 -0.27122357922E+02 -0.30108021824E+02 -0.33242828388E+01  0.50528854241E+02  0.29999982951E+02 0.  0.
         12    1    1    2    0    0  0.27122357922E+02  0.30108021824E+02  0.33242828388E+01  0.40659145759E+02  0.00000000000E+00 0. -1.
         11    1    3    3    0    0  0.29852741783E+01 -0.66417951088E+01 -0.29293289958E+01  0.78489663532E+01  0.51100000000E-03 0. -1.
        -11    1    3    3    0    0 -0.17376675260E+02 -0.18354521962E+02 -0.85956074713E+01  0.26696849770E+02  0.51100000000E-03 0.  1.
        -12    1    3    3    0    0 -0.12730956841E+02 -0.51117047533E+01  0.82006536283E+01  0.15983038118E+02  0.00000000000E+00 0.  1.
</event>
<event>
 7    1  0.5972636E-013  0.5052890E+02  0.7816164E-02  0.1300439E+00
        -11   -1    0    0    0    0  0.00000000000E+00  0.00000000000E+00  0.45593999997E+02  0.45594000000E+02  0.51100000000E-03 0. -1.
         11   -1    0    0    0    0 -0.00000000000E+00 -0.00000000000E+00 -0.45593999997E+02  0.45594000000E+02  0.51100000000E-03 0.  1.
    9900012    2    1    2    0    0  0.19622761722E+02 -0.30631948304E+02 -0.18160205325E+02  0.50528903945E+02  0.30000134032E+02 0.  0.
         12    1    1    2    0    0 -0.19622761722E+02  0.30631948304E+02  0.18160205325E+02  0.40659096055E+02  0.00000000000E+00 0. -1.
         11    1    3    3    0    0  0.14594501834E+02 -0.12030814638E+01 -0.11320752437E+02  0.18509627895E+02  0.51100000000E-03 0. -1.
        -11    1    3    3    0    0  0.51431770585E+01 -0.29992954197E+02 -0.60242527962E+01  0.31021302258E+02  0.51100000000E-03 0.  1.
        -12    1    3    3    0    0 -0.11491717084E+00  0.56408735670E+00 -0.81520009135E+00  0.99797379278E+00  0.00000000000E+00 0.  1.
</event>
<event>
 7    1  0.5972636E-013  0.5052887E+02  0.7816164E-02  0.1300439E+00
        -11   -1    0    0    0    0  0.00000000000E+00  0.00000000000E+00  0.45593999997E+02  0.45594000000E+02  0.51100000000E-03 0.  1.
         11   -1    0    0    0    0 -0.00000000000E+00 -0.00000000000E+00 -0.45593999997E+02  0.45594000000E+02  0.51100000000E-03 0. -1.
    9900012    2    1    2    0    0  0.23750901525E+02 -0.32696358454E+02  0.44729781122E+01  0.50528871719E+02  0.30000036077E+02 0.  0.
         12    1    1    2    0    0 -0.23750901525E+02  0.32696358454E+02 -0.44729781122E+01  0.40659128281E+02  0.00000000000E+00 0. -1.
         11    1    3    3    0    0  0.15817560307E+02 -0.66793760600E+01 -0.34294768705E+00  0.17173435649E+02  0.51100000000E-03 0. -1.
        -11    1    3    3    0    0  0.67609653307E+01 -0.23362779626E+02  0.10871515571E+02  0.26640570097E+02  0.51100000000E-03 0.  1.
        -12    1    3    3    0    0  0.11723758879E+01 -0.26542027677E+01 -0.60555897715E+01  0.67148659730E+01  0.00000000000E+00 0.  1.
</event>
<event>
 7    1  0.5972636E-013  0.5052886E+02  0.7816164E-02  0.1300439E+00
        -11   -1    0    0    0    0  0.00000000000E+00  0.00000000000E+00  0.45593999997E+02  0.45594000000E+02  0.51100000000E-03 0.  1.
         11   -1    0    0    0    0 -0.00000000000E+00 -0.00000000000E+00 -0.45593999997E+02  0.45594000000E+02  0.51100000000E-03 0. -1.
    9900012    2    1    2    0    0  0.25645321878E+02 -0.21479023385E+02  0.23111357648E+02  0.50528857952E+02  0.29999994230E+02 0.  0.
         12    1    1    2    0    0 -0.25645321878E+02  0.21479023385E+02 -0.23111357648E+02  0.40659142048E+02  0.00000000000E+00 0. -1.
         11    1    3    3    0    0  0.18859134374E+02 -0.28773353915E+01  0.43560217536E+01  0.19568365646E+02  0.51100000000E-03 0. -1.
        -11    1    3    3    0    0 -0.36930788605E+01 -0.22921140579E+01  0.71462385922E+01  0.83642898444E+01  0.51100000000E-03 0.  1.
         12    1    3    3    0    0  0.10479266364E+02 -0.16309573936E+02  0.11609097302E+02  0.22596202461E+02  0.00000000000E+00 0. -1.
</event>
<event>
 7    1  0.5972636E-013  0.5052886E+02  0.7816164E-02  0.1300439E+00
        -11   -1    0    0    0    0  0.00000000000E+00  0.00000000000E+00  0.45593999997E+02  0.45594000000E+02  0.51100000000E-03 0.  1.
         11   -1    0    0    0    0 -0.00000000000E+00 -0.00000000000E+00 -0.45593999997E+02  0.45594000000E+02  0.51100000000E-03 0. -1.
    9900012    2    1    2    0    0 -0.18904882398E+01 -0.40554670492E+02  0.22159230421E+01  0.50528861305E+02  0.30000004422E+02 0.  0.
         12    1    1    2    0    0  0.18904882398E+01  0.40554670492E+02 -0.22159230421E+01  0.40659138695E+02  0.00000000000E+00 0. -1.
         11    1    3    3    0    0 -0.63670899190E+00  0.29871278447E+01  0.36197489361E+01  0.47361285585E+01  0.51100000000E-03 0. -1.
        -11    1    3    3    0    0 -0.70031039583E+01 -0.27973163810E+02 -0.35662752320E+01  0.29056146990E+02  0.51100000000E-03 0.  1.
         12    1    3    3    0    0  0.57493247104E+01 -0.15568634527E+02  0.21624493380E+01  0.16736585757E+02  0.00000000000E+00 0. -1.
</event>
<event>
 7    1  0.5972636E-013  0.5052884E+02  0.7816164E-02  0.1300439E+00
        -11   -1    0    0    0    0  0.00000000000E+00  0.00000000000E+00  0.45593999997E+02  0.45594000000E+02  0.51100000000E-03 0.  1.
         11   -1    0    0    0    0 -0.00000000000E+00 -0.00000000000E+00 -0.45593999997E+02  0.45594000000E+02  0.51100000000E-03 0. -1.
    9900012    2    1    2    0    0 -0.30684869970E+02 -0.12609544730E+02  0.23507562324E+02  0.50528839288E+02  0.29999937499E+02 0.  0.
         12    1    1    2    0    0  0.30684869970E+02  0.12609544730E+02 -0.23507562324E+02  0.40659160712E+02  0.00000000000E+00 0. -1.
         11    1    3    3    0    0 -0.16600823960E+02  0.49982535886E+01  0.68542130135E+01  0.18642696462E+02  0.51100000000E-03 0. -1.
        -11    1    3    3    0    0 -0.10023492722E+02 -0.14287468031E+02  0.19291602054E+02  0.26014766176E+02  0.51100000000E-03 0.  1.
         12    1    3    3    0    0 -0.40605532879E+01 -0.33203302875E+01 -0.26382527436E+01  0.58713766496E+01  0.00000000000E+00 0. -1.
</event>
<event>
 7    1  0.5972636E-013  0.5052887E+02  0.7816164E-02  0.1300439E+00
        -11   -1    0    0    0    0  0.00000000000E+00  0.00000000000E+00  0.45593999997E+02  0.45594000000E+02  0.51100000000E-03 0.  1.
         11   -1    0    0    0    0 -0.00000000000E+00 -0.00000000000E+00 -0.45593999997E+02  0.45594000000E+02  0.51100000000E-03 0. -1.
    9900012    2    1    2    0    0 -0.14426443537E+01 -0.40611192561E+02  0.13472389518E+01  0.50528865273E+02  0.30000016483E+02 0.  0.
         12    1    1    2    0    0  0.14426443537E+01  0.40611192561E+02 -0.13472389518E+01  0.40659134727E+02  0.00000000000E+00 0. -1.
         11    1    3    3    0    0 -0.31389897568E+01 -0.10823204079E+02 -0.52848630118E+01  0.12446878345E+02  0.51100000000E-03 0. -1.
        -11    1    3    3    0    0 -0.57893531583E+01 -0.20281906771E+02  0.12622678902E+02  0.24580569057E+02  0.51100000000E-03 0.  1.
        -12    1    3    3    0    0  0.74856985614E+01 -0.95060817117E+01 -0.59905769382E+01  0.13501417870E+02  0.00000000000E+00 0.  1.
</event>
<event>
 7    1  0.5972636E-013  0.5052886E+02  0.7816164E-02  0.1300439E+00
        -11   -1    0    0    0    0  0.00000000000E+00  0.00000000000E+00  0.45593999997E+02  0.45594000000E+02  0.51100000000E-03 0. -1.
         11   -1    0    0    0    0 -0.00000000000E+00 -0.00000000000E+00 -0.45593999997E+02  0.45594000000E+02  0.51100000000E-03 0.  1.
    9900012    2    1    2    0    0 -0.56832352680E+01 -0.59816633069E+01 -0.39813137036E+02  0.50528864008E+02  0.30000012638E+02 0.  0.
         12    1    1    2    0    0  0.56832352680E+01  0.59816633069E+01  0.39813137036E+02  0.40659135992E+02  0.00000000000E+00 0. -1.
         11    1    3    3    0    0  0.74669781382E+01 -0.12717101847E+02 -0.16811134160E+02  0.22362796648E+02  0.51100000000E-03 0. -1.
        -11    1    3    3    0    0 -0.71267324896E+01  0.34014453877E+01 -0.18000465223E+02  0.19656472095E+02  0.51100000000E-03 0.  1.
         12    1    3    3    0    0 -0.60234809166E+01  0.33339931521E+01 -0.50015376525E+01  0.85095952653E+01  0.00000000000E+00 0. -1.
</event>
<event>
 7    1  0.5972636E-013  0.5052886E+02  0.7816164E-02  0.1300439E+00
        -11   -1    0    0    0    0  0.00000000000E+00  0.00000000000E+00  0.45593999997E+02  0.45594000000E+02  0.51100000000E-03 0.  1.
         11   -1    0    0    0    0 -0.00000000000E+00 -0.00000000000E+00 -0.45593999997E+02  0.45594000000E+02  0.51100000000E-03 0. -1.
    9900012    2    1    2    0    0 -0.34222802655E+02  0.19402710160E+02  0.10271333292E+02  0.50528859937E+02  0.30000000263E+02 0.  0.
         12    1    1    2    0    0  0.34222802655E+02 -0.19402710160E+02 -0.10271333292E+02  0.40659140063E+02  0.00000000000E+00 0. -1.
         11    1    3    3    0    0 -0.33775775519E+02  0.22757282806E+02  0.33606487030E+01  0.40865522052E+02  0.51100000000E-03 0. -1.
        -11    1    3    3    0    0  0.46363098259E+00  0.42961710035E+00  0.54802611752E+01  0.55165920051E+01  0.51100000000E-03 0.  1.
         12    1    3    3    0    0 -0.91065811809E+00 -0.37841897462E+01  0.14304234132E+01  0.41467458790E+01  0.00000000000E+00 0. -1.
</event>
<event>
 7    1  0.5972636E-013  0.5052886E+02  0.7816164E-02  0.1300439E+00
        -11   -1    0    0    0    0  0.00000000000E+00  0.00000000000E+00  0.45593999997E+02  0.45594000000E+02  0.51100000000E-03 0.  1.
         11   -1    0    0    0    0 -0.00000000000E+00 -0.00000000000E+00 -0.45593999997E+02  0.45594000000E+02  0.51100000000E-03 0. -1.
    9900012    2    1    2    0    0  0.76558319393E+01 -0.39231147198E+02  0.74478921776E+01  0.50528858702E+02  0.29999996511E+02 0.  0.
         12    1    1    2    0    0 -0.76558319393E+01  0.39231147198E+02 -0.74478921776E+01  0.40659141298E+02  0.00000000000E+00 0. -1.
         11    1    3    3    0    0  0.97511722437E+01 -0.16382495987E+02  0.16959204760E+02  0.25516390051E+02  0.51100000000E-03 0. -1.
        -11    1    3    3    0    0  0.61227275570E-01 -0.12658223252E+02 -0.61038518489E+01  0.14053162361E+02  0.51100000000E-03 0.  1.
         12    1    3    3    0    0 -0.21565675800E+01 -0.10190427959E+02 -0.34074607334E+01  0.10959306291E+02  0.00000000000E+00 0. -1.
</event>
<event>
 7    1  0.5972636E-013  0.5052886E+02  0.7816164E-02  0.1300439E+00
        -11   -1    0    0    0    0  0.00000000000E+00  0.00000000000E+00  0.45593999997E+02  0.45594000000E+02  0.51100000000E-03 0.  1.
         11   -1    0    0    0    0 -0.00000000000E+00 -0.00000000000E+00 -0.45593999997E+02  0.45594000000E+02  0.51100000000E-03 0. -1.
    9900012    2    1    2    0    0  0.70361951269E+01  0.31148859095E+02  0.25167560615E+02  0.50528861150E+02  0.30000003951E+02 0.  0.
         12    1    1    2    0    0 -0.70361951269E+01 -0.31148859095E+02 -0.25167560615E+02  0.40659138850E+02  0.00000000000E+00 0. -1.
         11    1    3    3    0    0  0.10893564388E+02  0.50421669529E+01 -0.12196734406E+01  0.12065686728E+02  0.51100000000E-03 0. -1.
        -11    1    3    3    0    0 -0.43727976861E+01  0.15426397845E+02  0.10003238383E+02  0.18898674252E+02  0.51100000000E-03 0.  1.
        -12    1    3    3    0    0  0.51542842541E+00  0.10680294297E+02  0.16383995672E+02  0.19564500170E+02  0.00000000000E+00 0.  1.
</event>
<event>
 7    1  0.5972636E-013  0.5052886E+02  0.7816164E-02  0.1300439E+00
        -11   -1    0    0    0    0  0.00000000000E+00  0.00000000000E+00  0.45593999997E+02  0.45594000000E+02  0.51100000000E-03 0.  1.
         11   -1    0    0    0    0 -0.00000000000E+00 -0.00000000000E+00 -0.45593999997E+02  0.45594000000E+02  0.51100000000E-03 0. -1.
    9900012    2    1    2    0    0  0.11102995354E+01 -0.29969001895E+02  0.27455268397E+02  0.50528860777E+02  0.30000002816E+02 0.  0.
         12    1    1    2    0    0 -0.11102995354E+01  0.29969001895E+02 -0.27455268397E+02  0.40659139223E+02  0.00000000000E+00 0. -1.
         11    1    3    3    0    0  0.66503549259E+01 -0.15457548645E+02 -0.27077669866E+00  0.16829627180E+02  0.51100000000E-03 0. -1.
        -11    1    3    3    0    0 -0.27983122640E+01 -0.15826029660E+02  0.22449477130E+02  0.27609288112E+02  0.51100000000E-03 0.  1.
         12    1    3    3    0    0 -0.27417431265E+01  0.13145764104E+01  0.52765679654E+01  0.60899454845E+01  0.00000000000E+00 0. -1.
</event>
<event>
 7    1  0.5972636E-013  0.5052886E+02  0.7816164E-02  0.1300439E+00
        -11   -1    0    0    0    0  0.00000000000E+00  0.00000000000E+00  0.45593999997E+02  0.45594000000E+02  0.51100000000E-03 0.  1.
         11   -1    0    0    0    0 -0.00000000000E+00 -0.00000000000E+00 -0.45593999997E+02  0.45594000000E+02  0.51100000000E-03 0. -1.
    9900012    2    1    2    0    0  0.23556152945E+02 -0.32942315704E+02 -0.36162457520E+01  0.50528859099E+02  0.29999997716E+02 0.  0.
         12    1    1    2    0    0 -0.23556152945E+02  0.32942315704E+02  0.36162457520E+01  0.40659140901E+02  0.00000000000E+00 0. -1.
         11    1    3    3    0    0  0.67256898445E+01 -0.59318681140E+01 -0.46730947221E+01  0.10112357675E+02  0.51100000000E-03 0. -1.
        -11    1    3    3    0    0  0.71520092910E+01 -0.29491951731E+02  0.17794229489E+01  0.30398894719E+02  0.51100000000E-03 0.  1.
        -12    1    3    3    0    0  0.96784538093E+01  0.24815041413E+01 -0.72257397871E+00  0.10017606705E+02  0.00000000000E+00 0.  1.
</event>
<event>
 7    1  0.5972636E-013  0.5052886E+02  0.7816164E-02  0.1300439E+00
        -11   -1    0    0    0    0  0.00000000000E+00  0.00000000000E+00  0.45593999997E+02  0.45594000000E+02  0.51100000000E-03 0.  1.
         11   -1    0    0    0    0 -0.00000000000E+00 -0.00000000000E+00 -0.45593999997E+02  0.45594000000E+02  0.51100000000E-03 0. -1.
    9900012    2    1    2    0    0 -0.18663300682E+02  0.20586121550E+02  0.29682624176E+02  0.50528863625E+02  0.30000011474E+02 0.  0.
         12    1    1    2    0    0  0.18663300682E+02 -0.20586121550E+02 -0.29682624176E+02  0.40659136375E+02  0.00000000000E+00 0. -1.
         11    1    3    3    0    0 -0.12723477548E+02  0.50501311627E+01  0.87712717785E+00  0.13717144674E+02  0.51100000000E-03 0. -1.
        -11    1    3    3    0    0  0.27205299646E+01  0.88385588117E+01  0.22141322675E+02  0.23994990627E+02  0.51100000000E-03 0.  1.
        -12    1    3    3    0    0 -0.86603530988E+01  0.66974315754E+01  0.66641743233E+01  0.12816728323E+02  0.00000000000E+00 0.  1.
</event>
<event>
 7    1  0.5972636E-013  0.5052886E+02  0.7816164E-02  0.1300439E+00
        -11   -1    0    0    0    0  0.00000000000E+00  0.00000000000E+00  0.45593999997E+02  0.45594000000E+02  0.51100000000E-03 0. -1.
         11   -1    0    0    0    0 -0.00000000000E+00 -0.00000000000E+00 -0.45593999997E+02  0.45594000000E+02  0.51100000000E-03 0.  1.
    9900012    2    1    2    0    0 -0.17098933155E+02  0.14367991049E+02 -0.33975765839E+02  0.50528863928E+02  0.30000012395E+02 0.  0.
         12    1    1    2    0    0  0.17098933155E+02 -0.14367991049E+02  0.33975765839E+02  0.40659136072E+02  0.00000000000E+00 0. -1.
         11    1    3    3    0    0 -0.11072355044E+02  0.17649423531E+02 -0.11055741994E+02  0.23586619692E+02  0.51100000000E-03 0.  1.
        -11    1    3    3    0    0 -0.12881358474E+01 -0.48635180779E+00 -0.21103993210E+02  0.21148861949E+02  0.51100000000E-03 0. -1.
        -12    1    3    3    0    0 -0.47384422633E+01 -0.27950806745E+01 -0.18160306344E+01  0.57933822871E+01  0.00000000000E+00 0.  1.
</event>
<event>
 7    1  0.5972636E-013  0.5052886E+02  0.7816164E-02  0.1300439E+00
        -11   -1    0    0    0    0  0.00000000000E+00  0.00000000000E+00  0.45593999997E+02  0.45594000000E+02  0.51100000000E-03 0. -1.
         11   -1    0    0    0    0 -0.00000000000E+00 -0.00000000000E+00 -0.45593999997E+02  0.45594000000E+02  0.51100000000E-03 0.  1.
    9900012    2    1    2    0    0 -0.25830794416E+02 -0.29868789540E+02  0.96845990638E+01  0.50528856037E+02  0.29999988411E+02 0.  0.
         12    1    1    2    0    0  0.25830794416E+02  0.29868789540E+02 -0.96845990638E+01  0.40659143963E+02  0.00000000000E+00 0. -1.
         11    1    3    3    0    0 -0.18520540067E+01 -0.20334859955E+02  0.20206710021E+00  0.20420026072E+02  0.51100000000E-03 0. -1.
        -11    1    3    3    0    0 -0.76076096454E+01  0.17589468133E+01 -0.56102757039E+00  0.78284334706E+01  0.51100000000E-03 0.  1.
         12    1    3    3    0    0 -0.16371130764E+02 -0.11292876399E+02  0.10043559534E+02  0.22280396495E+02  0.00000000000E+00 0. -1.
</event>
<event>
 7    1  0.5972636E-013  0.5052886E+02  0.7816164E-02  0.1300439E+00
        -11   -1    0    0    0    0  0.00000000000E+00  0.00000000000E+00  0.45593999997E+02  0.45594000000E+02  0.51100000000E-03 0. -1.
         11   -1    0    0    0    0 -0.00000000000E+00 -0.00000000000E+00 -0.45593999997E+02  0.45594000000E+02  0.51100000000E-03 0.  1.
    9900012    2    1    2    0    0  0.99111917375E+01 -0.39361938400E+02  0.23604232535E+01  0.50528861861E+02  0.30000006113E+02 0.  0.
         12    1    1    2    0    0 -0.99111917375E+01  0.39361938400E+02 -0.23604232535E+01  0.40659138139E+02  0.00000000000E+00 0. -1.
         11    1    3    3    0    0  0.29694168324E+01  0.33417315989E+01  0.39279406327E+01  0.59509095337E+01  0.51100000000E-03 0. -1.
        -11    1    3    3    0    0  0.12676460215E+01 -0.25154287772E+02 -0.53550290959E+01  0.25749203029E+02  0.51100000000E-03 0.  1.
         12    1    3    3    0    0  0.56741288836E+01 -0.17549382227E+02  0.37875117168E+01  0.18828749298E+02  0.00000000000E+00 0. -1.
</event>
<event>
 7    1  0.5972636E-013  0.5052880E+02  0.7816164E-02  0.1300439E+00
        -11   -1    0    0    0    0  0.00000000000E+00  0.00000000000E+00  0.45593999997E+02  0.45594000000E+02  0.51100000000E-03 0.  1.
         11   -1    0    0    0    0 -0.00000000000E+00 -0.00000000000E+00 -0.45593999997E+02  0.45594000000E+02  0.51100000000E-03 0. -1.
    9900012    2    1    2    0    0  0.21454639287E+02  0.34455431441E+02  0.23858229097E+01  0.50528801119E+02  0.29999821481E+02 0.  0.
         12    1    1    2    0    0 -0.21454639287E+02 -0.34455431441E+02 -0.23858229097E+01  0.40659198881E+02  0.00000000000E+00 0. -1.
         11    1    3    3    0    0  0.69204570748E+01  0.29381742703E+02 -0.76340975120E+01  0.31136136168E+02  0.51100000000E-03 0. -1.
        -11    1    3    3    0    0  0.12067755555E+02  0.19335081685E+01  0.92467145841E+01  0.15325498648E+02  0.51100000000E-03 0.  1.
        -12    1    3    3    0    0  0.24664266579E+01  0.31401805691E+01  0.77320583758E+00  0.40671663025E+01  0.00000000000E+00 0.  1.
</event>
<event>
 7    1  0.5972636E-013  0.5052886E+02  0.7816164E-02  0.1300439E+00
        -11   -1    0    0    0    0  0.00000000000E+00  0.00000000000E+00  0.45593999997E+02  0.45594000000E+02  0.51100000000E-03 0.  1.
         11   -1    0    0    0    0 -0.00000000000E+00 -0.00000000000E+00 -0.45593999997E+02  0.45594000000E+02  0.51100000000E-03 0. -1.
    9900012    2    1    2    0    0 -0.39031284747E+02 -0.11262763383E+02 -0.16954507147E+01  0.50528861037E+02  0.30000003610E+02 0.  0.
         12    1    1    2    0    0  0.39031284747E+02  0.11262763383E+02  0.16954507147E+01  0.40659138963E+02  0.00000000000E+00 0. -1.
         11    1    3    3    0    0 -0.15426898547E+02 -0.63000378212E+01 -0.60221420798E+01  0.17718517738E+02  0.51100000000E-03 0. -1.
        -11    1    3    3    0    0 -0.12935606557E+01  0.59124520510E+01  0.51933129494E+01  0.79750164938E+01  0.51100000000E-03 0.  1.
        -12    1    3    3    0    0 -0.22310825544E+02 -0.10875177613E+02 -0.86662158436E+00  0.24835326806E+02  0.00000000000E+00 0.  1.
</event>
<event>
 7    1  0.5972636E-013  0.5052886E+02  0.7816164E-02  0.1300439E+00
        -11   -1    0    0    0    0  0.00000000000E+00  0.00000000000E+00  0.45593999997E+02  0.45594000000E+02  0.51100000000E-03 0.  1.
         11   -1    0    0    0    0 -0.00000000000E+00 -0.00000000000E+00 -0.45593999997E+02  0.45594000000E+02  0.51100000000E-03 0. -1.
    9900012    2    1    2    0    0  0.68661616087E+01 -0.56181065825E+01  0.39679446076E+02  0.50528859112E+02  0.29999997758E+02 0.  0.
         12    1    1    2    0    0 -0.68661616087E+01  0.56181065825E+01 -0.39679446076E+02  0.40659140888E+02  0.00000000000E+00 0. -1.
         11    1    3    3    0    0 -0.64389430262E+00  0.21362563204E+01  0.38183503999E+01  0.44224417437E+01  0.51100000000E-03 0. -1.
        -11    1    3    3    0    0  0.39623688699E+01 -0.16802966723E+02  0.30394827179E+02  0.34955479932E+02  0.51100000000E-03 0.  1.
        -12    1    3    3    0    0  0.35476870414E+01  0.90486038201E+01  0.54662684969E+01  0.11150937437E+02  0.00000000000E+00 0.  1.
</event>
<event>
 7    1  0.5972636E-013  0.5052886E+02  0.7816164E-02  0.1300439E+00
        -11   -1    0    0    0    0  0.00000000000E+00  0.00000000000E+00  0.45593999997E+02  0.45594000000E+02  0.51100000000E-03 0.  1.
         11   -1    0    0    0    0 -0.00000000000E+00 -0.00000000000E+00 -0.45593999997E+02  0.45594000000E+02  0.51100000000E-03 0. -1.
    9900012    2    1    2    0    0 -0.73347804701E+01 -0.23154748353E+02  0.32607121507E+02  0.50528858976E+02  0.29999997342E+02 0.  0.
         12    1    1    2    0    0  0.73347804701E+01  0.23154748353E+02 -0.32607121507E+02  0.40659141024E+02  0.00000000000E+00 0. -1.
         11    1    3    3    0    0 -0.34192450534E+01 -0.20212233282E+02  0.25257529937E+02  0.32529500914E+02  0.51100000000E-03 0.  1.
        -11    1    3    3    0    0 -0.67825730738E+00 -0.40109556000E+01 -0.42655377445E+01  0.58942862427E+01  0.51100000000E-03 0. -1.
        -12    1    3    3    0    0 -0.32372781094E+01  0.10684405288E+01  0.11615129315E+02  0.12105071818E+02  0.00000000000E+00 0.  1.
</event>
<event>
 7    1  0.5972636E-013  0.5052885E+02  0.7816164E-02  0.1300439E+00
        -11   -1    0    0    0    0  0.00000000000E+00  0.00000000000E+00  0.45593999997E+02  0.45594000000E+02  0.51100000000E-03 0. -1.
         11   -1    0    0    0    0 -0.00000000000E+00 -0.00000000000E+00 -0.45593999997E+02  0.45594000000E+02  0.51100000000E-03 0.  1.
    9900012    2    1    2    0    0 -0.24958326428E+01 -0.35049991380E+02 -0.20455684773E+02  0.50528854462E+02  0.29999983624E+02 0.  0.
         12    1    1    2    0    0  0.24958326428E+01  0.35049991380E+02  0.20455684773E+02  0.40659145538E+02  0.00000000000E+00 0. -1.
         11    1    3    3    0    0 -0.91065907590E+01  0.47129628979E+00 -0.54897692362E+01  0.10643762585E+02  0.51100000000E-03 0. -1.
        -11    1    3    3    0    0  0.66306768533E+01 -0.29559641802E+02 -0.15251132698E+02  0.33916593989E+02  0.51100000000E-03 0.  1.
         12    1    3    3    0    0 -0.19918737076E-01 -0.59616458678E+01  0.28521716123E+00  0.59684978879E+01  0.00000000000E+00 0. -1.
</event>
<event>
 7    1  0.5972636E-013  0.5052886E+02  0.7816164E-02  0.1300439E+00
        -11   -1    0    0    0    0  0.00000000000E+00  0.00000000000E+00  0.45593999997E+02  0.45594000000E+02  0.51100000000E-03 0.  1.
         11   -1    0    0    0    0 -0.00000000000E+00 -0.00000000000E+00 -0.45593999997E+02  0.45594000000E+02  0.51100000000E-03 0. -1.
    9900012    2    1    2    0    0  0.52401808467E+00  0.76464649612E+01  0.39930226947E+02  0.50528855329E+02  0.29999986258E+02 0.  0.
         12    1    1    2    0    0 -0.52401808467E+00 -0.76464649612E+01 -0.39930226947E+02  0.40659144671E+02  0.00000000000E+00 0. -1.
         11    1    3    3    0    0  0.92649691516E+01  0.55521337576E+01  0.29100667782E+02  0.31040533312E+02  0.51100000000E-03 0.  1.
        -11    1    3    3    0    0 -0.10464504015E+02  0.58282462587E+01  0.90240622896E+01  0.14996932993E+02  0.51100000000E-03 0. -1.
         12    1    3    3    0    0  0.17235529476E+01 -0.37339150551E+01  0.18054968751E+01  0.44913890243E+01  0.00000000000E+00 0. -1.
</event>
<event>
 7    1  0.5972636E-013  0.5052885E+02  0.7816164E-02  0.1300439E+00
        -11   -1    0    0    0    0  0.00000000000E+00  0.00000000000E+00  0.45593999997E+02  0.45594000000E+02  0.51100000000E-03 0.  1.
         11   -1    0    0    0    0 -0.00000000000E+00 -0.00000000000E+00 -0.45593999997E+02  0.45594000000E+02  0.51100000000E-03 0. -1.
    9900012    2    1    2    0    0  0.30380390806E+02 -0.18903344661E+02  0.19309633811E+02  0.50528849212E+02  0.29999967664E+02 0.  0.
         12    1    1    2    0    0 -0.30380390806E+02  0.18903344661E+02 -0.19309633811E+02  0.40659150788E+02  0.00000000000E+00 0. -1.
         11    1    3    3    0    0  0.18015474855E+02 -0.97613785354E+01  0.24150190375E+02  0.31671336261E+02  0.51100000000E-03 0.  1.
        -11    1    3    3    0    0  0.13231060748E+02 -0.53464085152E+01 -0.31542837373E+01  0.14614874570E+02  0.51100000000E-03 0. -1.
         12    1    3    3    0    0 -0.86614479697E+00 -0.37955576106E+01 -0.16862728268E+01  0.42426383809E+01  0.00000000000E+00 0. -1.
</event>
<event>
 7    1  0.5972636E-013  0.5052886E+02  0.7816164E-02  0.1300439E+00
        -11   -1    0    0    0    0  0.00000000000E+00  0.00000000000E+00  0.45593999997E+02  0.45594000000E+02  0.51100000000E-03 0.  1.
         11   -1    0    0    0    0 -0.00000000000E+00 -0.00000000000E+00 -0.45593999997E+02  0.45594000000E+02  0.51100000000E-03 0. -1.
    9900012    2    1    2    0    0 -0.19861812957E+02  0.27496659334E+02  0.22418913058E+02  0.50528861406E+02  0.30000004731E+02 0.  0.
         12    1    1    2    0    0  0.19861812957E+02 -0.27496659334E+02 -0.22418913058E+02  0.40659138594E+02  0.00000000000E+00 0. -1.
         11    1    3    3    0    0 -0.10682678133E+02  0.14347306947E+02  0.58287196852E+01  0.18813261338E+02  0.51100000000E-03 0. -1.
        -11    1    3    3    0    0  0.27069310776E+01  0.47077294308E+01  0.16249476096E+02  0.17132882592E+02  0.51100000000E-03 0.  1.
        -12    1    3    3    0    0 -0.11886065901E+02  0.84416229563E+01  0.34071727678E+00  0.14582717477E+02  0.00000000000E+00 0.  1.
</event>
<event>
 7    1  0.5972636E-013  0.5052887E+02  0.7816164E-02  0.1300439E+00
        -11   -1    0    0    0    0  0.00000000000E+00  0.00000000000E+00  0.45593999997E+02  0.45594000000E+02  0.51100000000E-03 0.  1.
         11   -1    0    0    0    0 -0.00000000000E+00 -0.00000000000E+00 -0.45593999997E+02  0.45594000000E+02  0.51100000000E-03 0. -1.
    9900012    2    1    2    0    0 -0.89832760899E+01  0.38629970094E+02  0.89549493497E+01  0.50528868718E+02  0.30000026956E+02 0.  0.
         12    1    1    2    0    0  0.89832760899E+01 -0.38629970094E+02 -0.89549493497E+01  0.40659131282E+02  0.00000000000E+00 0. -1.
         11    1    3    3    0    0  0.42947349533E+01  0.28758745959E+02  0.65996531250E+01  0.29817203744E+02  0.51100000000E-03 0. -1.
        -11    1    3    3    0    0 -0.12848915872E+02  0.12048717096E+02  0.38573446387E+01  0.18031786675E+02  0.51100000000E-03 0.  1.
        -12    1    3    3    0    0 -0.42909517111E+00 -0.21774929618E+01 -0.15020484140E+01  0.26798782999E+01  0.00000000000E+00 0.  1.
</event>
<event>
 7    1  0.5972636E-013  0.5052886E+02  0.7816164E-02  0.1300439E+00
        -11   -1    0    0    0    0  0.00000000000E+00  0.00000000000E+00  0.45593999997E+02  0.45594000000E+02  0.51100000000E-03 0. -1.
         11   -1    0    0    0    0 -0.00000000000E+00 -0.00000000000E+00 -0.45593999997E+02  0.45594000000E+02  0.51100000000E-03 0.  1.
    9900012    2    1    2    0    0  0.27593941613E+02 -0.29798558289E+02 -0.19456818537E+01  0.50528863663E+02  0.30000011589E+02 0.  0.
         12    1    1    2    0    0 -0.27593941613E+02  0.29798558289E+02  0.19456818537E+01  0.40659136337E+02  0.00000000000E+00 0. -1.
         11    1    3    3    0    0  0.23427842027E+02 -0.18680871201E+02 -0.76383649185E+01  0.30922214503E+02  0.51100000000E-03 0. -1.
        -11    1    3    3    0    0 -0.38585062583E+01 -0.11885021483E+00 -0.15797568232E+01  0.41710703423E+01  0.51100000000E-03 0.  1.
        -12    1    3    3    0    0  0.80246058438E+01 -0.10998836873E+02  0.72724398880E+01  0.15435578817E+02  0.00000000000E+00 0.  1.
</event>
<event>
 7    1  0.5972636E-013  0.5052887E+02  0.7816164E-02  0.1300439E+00
        -11   -1    0    0    0    0  0.00000000000E+00  0.00000000000E+00  0.45593999997E+02  0.45594000000E+02  0.51100000000E-03 0.  1.
         11   -1    0    0    0    0 -0.00000000000E+00 -0.00000000000E+00 -0.45593999997E+02  0.45594000000E+02  0.51100000000E-03 0. -1.
    9900012    2    1    2    0    0  0.77323738143E+01  0.16915086032E+02  0.36155979967E+02  0.50528872763E+02  0.30000039251E+02 0.  0.
         12    1    1    2    0    0 -0.77323738143E+01 -0.16915086032E+02 -0.36155979967E+02  0.40659127237E+02  0.00000000000E+00 0. -1.
         11    1    3    3    0    0 -0.87170408723E+01  0.34950371184E+01  0.87903515212E+01  0.12863606266E+02  0.51100000000E-03 0. -1.
        -11    1    3    3    0    0  0.43689335980E+01  0.91653949048E+01  0.21080800598E+02  0.23398551208E+02  0.51100000000E-03 0.  1.
         12    1    3    3    0    0  0.12080481089E+02  0.42546540089E+01  0.62848278483E+01  0.14266715289E+02  0.00000000000E+00 0. -1.
</event>
<event>
 7    1  0.5972636E-013  0.5052886E+02  0.7816164E-02  0.1300439E+00
        -11   -1    0    0    0    0  0.00000000000E+00  0.00000000000E+00  0.45593999997E+02  0.45594000000E+02  0.51100000000E-03 0. -1.
         11   -1    0    0    0    0 -0.00000000000E+00 -0.00000000000E+00 -0.45593999997E+02  0.45594000000E+02  0.51100000000E-03 0.  1.
    9900012    2    1    2    0    0 -0.54756486326E+01  0.40154386602E+02  0.32876208375E+01  0.50528856599E+02  0.29999990119E+02 0.  0.
         12    1    1    2    0    0  0.54756486326E+01 -0.40154386602E+02 -0.32876208375E+01  0.40659143401E+02  0.00000000000E+00 0. -1.
         11    1    3    3    0    0 -0.54101192631E+01  0.28873418253E+01 -0.86355272206E+01  0.10591433515E+02  0.51100000000E-03 0. -1.
        -11    1    3    3    0    0 -0.33011241240E+01  0.91841887269E+01  0.18877557424E+01  0.99403402888E+01  0.51100000000E-03 0.  1.
         12    1    3    3    0    0  0.32355947544E+01  0.28082856050E+02  0.10035392316E+02  0.29997082796E+02  0.00000000000E+00 0. -1.
</event>
<event>
 7    1  0.5972636E-013  0.5052886E+02  0.7816164E-02  0.1300439E+00
        -11   -1    0    0    0    0  0.00000000000E+00  0.00000000000E+00  0.45593999997E+02  0.45594000000E+02  0.51100000000E-03 0.  1.
         11   -1    0    0    0    0 -0.00000000000E+00 -0.00000000000E+00 -0.45593999997E+02  0.45594000000E+02  0.51100000000E-03 0. -1.
    9900012    2    1    2    0    0  0.18216856872E+02  0.34114222117E+02  0.12551150889E+02  0.50528863099E+02  0.30000009874E+02 0.  0.
         12    1    1    2    0    0 -0.18216856872E+02 -0.34114222117E+02 -0.12551150889E+02  0.40659136901E+02  0.00000000000E+00 0. -1.
         11    1    3    3    0    0  0.47924438307E-01 -0.27201299579E+00 -0.18949694308E+01  0.19149927484E+01  0.51100000000E-03 0. -1.
        -11    1    3    3    0    0  0.20964748147E+02  0.32008840884E+02  0.51360188545E+01  0.38606544128E+02  0.51100000000E-03 0.  1.
        -12    1    3    3    0    0 -0.27958157128E+01  0.23773942285E+01  0.93101014652E+01  0.10007326222E+02  0.00000000000E+00 0.  1.
</event>
<event>
 7    1  0.5972636E-013  0.5052884E+02  0.7816164E-02  0.1300439E+00
        -11   -1    0    0    0    0  0.00000000000E+00  0.00000000000E+00  0.45593999997E+02  0.45594000000E+02  0.51100000000E-03 0. -1.
         11   -1    0    0    0    0 -0.00000000000E+00 -0.00000000000E+00 -0.45593999997E+02  0.45594000000E+02  0.51100000000E-03 0.  1.
    9900012    2    1    2    0    0 -0.36957449084E+02  0.12995135083E+02 -0.10883035365E+02  0.50528843130E+02  0.29999949179E+02 0.  0.
         12    1    1    2    0    0  0.36957449084E+02 -0.12995135083E+02  0.10883035365E+02  0.40659156870E+02  0.00000000000E+00 0. -1.
         11    1    3    3    0    0 -0.21799195167E+02  0.44750603738E+01 -0.97618532037E+01  0.24300717140E+02  0.51100000000E-03 0.  1.
        -11    1    3    3    0    0 -0.12718212790E+02 -0.24348427026E+01  0.44572754225E+01  0.13694842095E+02  0.51100000000E-03 0. -1.
        -12    1    3    3    0    0 -0.24400411267E+01  0.10954917411E+02 -0.55784575837E+01  0.12533283895E+02  0.00000000000E+00 0.  1.
</event>
<event>
 7    1  0.6813314E-013  0.5052886E+02  0.7816164E-02  0.1300439E+00
        -11   -1    0    0    0    0  0.00000000000E+00  0.00000000000E+00  0.45593999997E+02  0.45594000000E+02  0.51100000000E-03 0.  1.
         11   -1    0    0    0    0 -0.00000000000E+00 -0.00000000000E+00 -0.45593999997E+02  0.45594000000E+02  0.51100000000E-03 0. -1.
    9900012    2    1    2    0    0 -0.25075403713E+02  0.31891966832E+02  0.27003563108E+01  0.50528863954E+02  0.30000012475E+02 0.  0.
         12    1    1    2    0    0  0.25075403713E+02 -0.31891966832E+02 -0.27003563108E+01  0.40659136046E+02  0.00000000000E+00 0. -1.
         11    1    3    3    0    0 -0.25431935103E+01  0.34800081968E+01 -0.91157373985E+01  0.10083400164E+02  0.51100000000E-03 0. -1.
        -11    1    3    3    0    0 -0.89390145384E+01  0.10151810752E+02  0.11380471400E+02  0.17677114357E+02  0.51100000000E-03 0.  1.
        -12    1    3    3    0    0 -0.13593195664E+02  0.18260147884E+02  0.43562230898E+00  0.22768349433E+02  0.00000000000E+00 0.  1.
</event>
<event>
 7    1  0.5972636E-013  0.5052886E+02  0.7816164E-02  0.1300439E+00
        -11   -1    0    0    0    0  0.00000000000E+00  0.00000000000E+00  0.45593999997E+02  0.45594000000E+02  0.51100000000E-03 0.  1.
         11   -1    0    0    0    0 -0.00000000000E+00 -0.00000000000E+00 -0.45593999997E+02  0.45594000000E+02  0.51100000000E-03 0. -1.
    9900012    2    1    2    0    0 -0.34948522765E+02 -0.19960990130E+02 -0.57728053161E+01  0.50528860171E+02  0.30000000976E+02 0.  0.
         12    1    1    2    0    0  0.34948522765E+02  0.19960990130E+02  0.57728053161E+01  0.40659139829E+02  0.00000000000E+00 0. -1.
         11    1    3    3    0    0  0.22500924342E+01  0.26112237471E+01  0.25456341807E+01  0.42850506488E+01  0.51100000000E-03 0. -1.
        -11    1    3    3    0    0 -0.35810290061E+02 -0.16914734950E+02 -0.64481550324E+01  0.40125600759E+02  0.51100000000E-03 0.  1.
         12    1    3    3    0    0 -0.13883251377E+01 -0.56574789262E+01 -0.18702844644E+01  0.61182087629E+01  0.00000000000E+00 0. -1.
</event>
<event>
 7    1  0.5972636E-013  0.5052887E+02  0.7816164E-02  0.1300439E+00
        -11   -1    0    0    0    0  0.00000000000E+00  0.00000000000E+00  0.45593999997E+02  0.45594000000E+02  0.51100000000E-03 0.  1.
         11   -1    0    0    0    0 -0.00000000000E+00 -0.00000000000E+00 -0.45593999997E+02  0.45594000000E+02  0.51100000000E-03 0. -1.
    9900012    2    1    2    0    0  0.25058031053E+02  0.71263452121E+01  0.31216590797E+02  0.50528865020E+02  0.30000015714E+02 0.  0.
         12    1    1    2    0    0 -0.25058031053E+02 -0.71263452121E+01 -0.31216590797E+02  0.40659134980E+02  0.00000000000E+00 0. -1.
         11    1    3    3    0    0 -0.56358754357E+00 -0.29126719478E+01  0.13546606856E+02  0.13867654681E+02  0.51100000000E-03 0. -1.
        -11    1    3    3    0    0  0.27834588060E+02  0.96516641915E+01  0.17783381420E+02  0.34411735921E+02  0.51100000000E-03 0.  1.
         12    1    3    3    0    0 -0.22129694628E+01  0.38735296846E+00 -0.11339747869E+00  0.22494744172E+01  0.00000000000E+00 0. -1.
</event>
<event>
 7    1  0.5972636E-013  0.5052886E+02  0.7816164E-02  0.1300439E+00
        -11   -1    0    0    0    0  0.00000000000E+00  0.00000000000E+00  0.45593999997E+02  0.45594000000E+02  0.51100000000E-03 0. -1.
         11   -1    0    0    0    0 -0.00000000000E+00 -0.00000000000E+00 -0.45593999997E+02  0.45594000000E+02  0.51100000000E-03 0.  1.
    9900012    2    1    2    0    0  0.74452687328E+01  0.21272312989E+02 -0.33841129727E+02  0.50528863418E+02  0.30000010846E+02 0.  0.
         12    1    1    2    0    0 -0.74452687328E+01 -0.21272312989E+02  0.33841129727E+02  0.40659136582E+02  0.00000000000E+00 0. -1.
         11    1    3    3    0    0 -0.11637977832E+01  0.13116696510E+02  0.69107556141E+00  0.13186346663E+02  0.51100000000E-03 0. -1.
        -11    1    3    3    0    0  0.28806218280E+01  0.50941470728E+01 -0.25823906468E+02  0.26478717153E+02  0.51100000000E-03 0.  1.
         12    1    3    3    0    0  0.57284446879E+01  0.30614694064E+01 -0.87082988200E+01  0.10863799603E+02  0.00000000000E+00 0. -1.
</event>
<event>
 7    1  0.5972636E-013  0.5052886E+02  0.7816164E-02  0.1300439E+00
        -11   -1    0    0    0    0  0.00000000000E+00  0.00000000000E+00  0.45593999997E+02  0.45594000000E+02  0.51100000000E-03 0. -1.
         11   -1    0    0    0    0 -0.00000000000E+00 -0.00000000000E+00 -0.45593999997E+02  0.45594000000E+02  0.51100000000E-03 0.  1.
    9900012    2    1    2    0    0 -0.27862401433E+02  0.12328487682E+01 -0.29586021848E+02  0.50528855660E+02  0.29999987264E+02 0.  0.
         12    1    1    2    0    0  0.27862401433E+02 -0.12328487682E+01  0.29586021848E+02  0.40659144340E+02  0.00000000000E+00 0. -1.
         11    1    3    3    0    0 -0.99615144352E+01  0.14436643455E+02 -0.12902031385E+02  0.21774086851E+02  0.51100000000E-03 0. -1.
        -11    1    3    3    0    0 -0.16910034350E+02 -0.13674282732E+02 -0.14022133093E+02  0.25875770263E+02  0.51100000000E-03 0.  1.
         12    1    3    3    0    0 -0.99085264763E+00  0.47048804479E+00 -0.26618573703E+01  0.28789985462E+01  0.00000000000E+00 0. -1.
</event>
<event>
 7    1  0.5972636E-013  0.5052887E+02  0.7816164E-02  0.1300439E+00
        -11   -1    0    0    0    0  0.00000000000E+00  0.00000000000E+00  0.45593999997E+02  0.45594000000E+02  0.51100000000E-03 0. -1.
         11   -1    0    0    0    0 -0.00000000000E+00 -0.00000000000E+00 -0.45593999997E+02  0.45594000000E+02  0.51100000000E-03 0.  1.
    9900012    2    1    2    0    0  0.51942985992E+00  0.14494580930E+01 -0.40629965928E+02  0.50528869814E+02  0.30000030287E+02 0.  0.
         12    1    1    2    0    0 -0.51942985992E+00 -0.14494580930E+01  0.40629965928E+02  0.40659130186E+02  0.00000000000E+00 0. -1.
         11    1    3    3    0    0  0.21801875524E+01  0.63394106575E+01 -0.72371120494E+01  0.98649448212E+01  0.51100000000E-03 0. -1.
        -11    1    3    3    0    0 -0.10373247466E+02 -0.80540266978E+00 -0.27446551910E+02  0.29352447061E+02  0.51100000000E-03 0.  1.
        -12    1    3    3    0    0  0.87124897739E+01 -0.40845498947E+01 -0.59463019685E+01  0.11311477932E+02  0.00000000000E+00 0.  1.
</event>
<event>
 7    1  0.5972636E-013  0.5052886E+02  0.7816164E-02  0.1300439E+00
        -11   -1    0    0    0    0  0.00000000000E+00  0.00000000000E+00  0.45593999997E+02  0.45594000000E+02  0.51100000000E-03 0.  1.
         11   -1    0    0    0    0 -0.00000000000E+00 -0.00000000000E+00 -0.45593999997E+02  0.45594000000E+02  0.51100000000E-03 0. -1.
    9900012    2    1    2    0    0  0.18366621081E+02  0.26304261411E+02  0.24978368838E+02  0.50528857755E+02  0.29999993633E+02 0.  0.
         12    1    1    2    0    0 -0.18366621081E+02 -0.26304261411E+02 -0.24978368838E+02  0.40659142245E+02  0.00000000000E+00 0. -1.
         11    1    3    3    0    0 -0.29181956233E+00 -0.35851355373E+01  0.39585267448E+01  0.53486717723E+01  0.51100000000E-03 0. -1.
        -11    1    3    3    0    0  0.22078016859E+02  0.28821726854E+02  0.20024207303E+02  0.41462026550E+02  0.51100000000E-03 0.  1.
         12    1    3    3    0    0 -0.34195762165E+01  0.10676700939E+01  0.99563479026E+00  0.37181594325E+01  0.00000000000E+00 0. -1.
</event>
<event>
 7    1  0.5972636E-013  0.5052886E+02  0.7816164E-02  0.1300439E+00
        -11   -1    0    0    0    0  0.00000000000E+00  0.00000000000E+00  0.45593999997E+02  0.45594000000E+02  0.51100000000E-03 0.  1.
         11   -1    0    0    0    0 -0.00000000000E+00 -0.00000000000E+00 -0.45593999997E+02  0.45594000000E+02  0.51100000000E-03 0. -1.
    9900012    2    1    2    0    0  0.14385570383E+02 -0.36063726121E+02  0.12067681812E+02  0.50528856855E+02  0.29999990895E+02 0.  0.
         12    1    1    2    0    0 -0.14385570383E+02  0.36063726121E+02 -0.12067681812E+02  0.40659143145E+02  0.00000000000E+00 0. -1.
         11    1    3    3    0    0  0.13892660243E+00 -0.63415450627E+01  0.23196730801E+01  0.67539157414E+01  0.51100000000E-03 0. -1.
        -11    1    3    3    0    0  0.66704350699E+01  0.39266386773E+01 -0.60360462542E+00  0.77638607747E+01  0.51100000000E-03 0.  1.
        -12    1    3    3    0    0  0.75762087107E+01 -0.33648819736E+02  0.10351613357E+02  0.36011080339E+02  0.00000000000E+00 0.  1.
</event>
<event>
 7    1  0.5972636E-013  0.5052886E+02  0.7816164E-02  0.1300439E+00
        -11   -1    0    0    0    0  0.00000000000E+00  0.00000000000E+00  0.45593999997E+02  0.45594000000E+02  0.51100000000E-03 0.  1.
         11   -1    0    0    0    0 -0.00000000000E+00 -0.00000000000E+00 -0.45593999997E+02  0.45594000000E+02  0.51100000000E-03 0. -1.
    9900012    2    1    2    0    0 -0.32294855658E+02 -0.45051319346E+01  0.24288102319E+02  0.50528857978E+02  0.29999994309E+02 0.  0.
         12    1    1    2    0    0  0.32294855658E+02  0.45051319346E+01 -0.24288102319E+02  0.40659142022E+02  0.00000000000E+00 0. -1.
         11    1    3    3    0    0 -0.10867292767E+02  0.30817192113E+01 -0.68532910918E+00  0.11316568456E+02  0.51100000000E-03 0. -1.
        -11    1    3    3    0    0 -0.25243488798E+02 -0.65492323347E+01  0.23090450144E+02  0.34832385204E+02  0.51100000000E-03 0.  1.
        -12    1    3    3    0    0  0.38159259062E+01 -0.10376188112E+01  0.18829812836E+01  0.43799043179E+01  0.00000000000E+00 0.  1.
</event>
<event>
 7    1  0.8589415E-013  0.5052886E+02  0.7816164E-02  0.1300439E+00
        -11   -1    0    0    0    0  0.00000000000E+00  0.00000000000E+00  0.45593999997E+02  0.45594000000E+02  0.51100000000E-03 0. -1.
         11   -1    0    0    0    0 -0.00000000000E+00 -0.00000000000E+00 -0.45593999997E+02  0.45594000000E+02  0.51100000000E-03 0.  1.
    9900012    2    1    2    0    0 -0.31119233400E+02  0.16131724593E+02 -0.20604038501E+02  0.50528860458E+02  0.30000001847E+02 0.  0.
         12    1    1    2    0    0  0.31119233400E+02 -0.16131724593E+02  0.20604038501E+02  0.40659139542E+02  0.00000000000E+00 0. -1.
         11    1    3    3    0    0 -0.87167135874E+00  0.24591862818E+01  0.46413637525E+01  0.53244404279E+01  0.51100000000E-03 0. -1.
        -11    1    3    3    0    0 -0.26506234075E+02  0.67202651613E+01 -0.12170987487E+02  0.29931176812E+02  0.51100000000E-03 0.  1.
        -12    1    3    3    0    0 -0.37413279667E+01  0.69522731497E+01 -0.13074414767E+02  0.15273243218E+02  0.00000000000E+00 0.  1.
</event>
<event>
 7    1  0.5972636E-013  0.5052888E+02  0.7816164E-02  0.1300439E+00
        -11   -1    0    0    0    0  0.00000000000E+00  0.00000000000E+00  0.45593999997E+02  0.45594000000E+02  0.51100000000E-03 0.  1.
         11   -1    0    0    0    0 -0.00000000000E+00 -0.00000000000E+00 -0.45593999997E+02  0.45594000000E+02  0.51100000000E-03 0. -1.
    9900012    2    1    2    0    0  0.31519602292E+01  0.37040012741E+02 -0.16470174517E+02  0.50528879919E+02  0.30000061003E+02 0.  0.
         12    1    1    2    0    0 -0.31519602292E+01 -0.37040012741E+02  0.16470174517E+02  0.40659120081E+02  0.00000000000E+00 0. -1.
         11    1    3    3    0    0 -0.71736051182E+01  0.19567335429E+02  0.26221466977E+00  0.20842504239E+02  0.51100000000E-03 0.  1.
        -11    1    3    3    0    0  0.11373612286E+02  0.16758948035E+02 -0.95492450611E+01  0.22392174463E+02  0.51100000000E-03 0. -1.
        -12    1    3    3    0    0 -0.10480469385E+01  0.71372927708E+00 -0.71831441259E+01  0.72942012174E+01  0.00000000000E+00 0.  1.
</event>
<event>
 7    1  0.5972636E-013  0.5052886E+02  0.7816164E-02  0.1300439E+00
        -11   -1    0    0    0    0  0.00000000000E+00  0.00000000000E+00  0.45593999997E+02  0.45594000000E+02  0.51100000000E-03 0. -1.
         11   -1    0    0    0    0 -0.00000000000E+00 -0.00000000000E+00 -0.45593999997E+02  0.45594000000E+02  0.51100000000E-03 0.  1.
    9900012    2    1    2    0    0 -0.13051397287E+02 -0.22756723733E+02 -0.31063780082E+02  0.50528857373E+02  0.29999992470E+02 0.  0.
         12    1    1    2    0    0  0.13051397287E+02  0.22756723733E+02  0.31063780082E+02  0.40659142627E+02  0.00000000000E+00 0. -1.
         11    1    3    3    0    0 -0.21985877309E+01  0.91948049215E+00 -0.40608189040E+01  0.47084480265E+01  0.51100000000E-03 0. -1.
        -11    1    3    3    0    0 -0.82127206742E+01 -0.25743101998E+02 -0.10515344034E+02  0.28995319308E+02  0.51100000000E-03 0.  1.
        -12    1    3    3    0    0 -0.26400888820E+01  0.20668977729E+01 -0.16487617144E+02  0.16825090038E+02  0.00000000000E+00 0.  1.
</event>
<event>
 7    1  0.5972636E-013  0.5052886E+02  0.7816164E-02  0.1300439E+00
        -11   -1    0    0    0    0  0.00000000000E+00  0.00000000000E+00  0.45593999997E+02  0.45594000000E+02  0.51100000000E-03 0.  1.
         11   -1    0    0    0    0 -0.00000000000E+00 -0.00000000000E+00 -0.45593999997E+02  0.45594000000E+02  0.51100000000E-03 0. -1.
    9900012    2    1    2    0    0 -0.26458407232E+02  0.22538095324E+02  0.21098637647E+02  0.50528861241E+02  0.30000004228E+02 0.  0.
         12    1    1    2    0    0  0.26458407232E+02 -0.22538095324E+02 -0.21098637647E+02  0.40659138759E+02  0.00000000000E+00 0. -1.
         11    1    3    3    0    0  0.44566601775E+01  0.26847526374E+01  0.11143786791E+02  0.12298524341E+02  0.51100000000E-03 0. -1.
        -11    1    3    3    0    0 -0.15787736002E+02  0.80593648056E+01  0.44983135380E+01  0.18287722496E+02  0.51100000000E-03 0.  1.
         12    1    3    3    0    0 -0.15127331407E+02  0.11793977881E+02  0.54565373173E+01  0.19942614403E+02  0.00000000000E+00 0. -1.
</event>
<event>
 7    1  0.5972636E-013  0.5052886E+02  0.7816164E-02  0.1300439E+00
        -11   -1    0    0    0    0  0.00000000000E+00  0.00000000000E+00  0.45593999997E+02  0.45594000000E+02  0.51100000000E-03 0.  1.
         11   -1    0    0    0    0 -0.00000000000E+00 -0.00000000000E+00 -0.45593999997E+02  0.45594000000E+02  0.51100000000E-03 0. -1.
    9900012    2    1    2    0    0  0.31994842248E+02 -0.97374580898E+01  0.23123095667E+02  0.50528861129E+02  0.30000003887E+02 0.  0.
         12    1    1    2    0    0 -0.31994842248E+02  0.97374580898E+01 -0.23123095667E+02  0.40659138871E+02  0.00000000000E+00 0. -1.
         11    1    3    3    0    0  0.15564695838E+01  0.40041194081E+01 -0.28801215296E+01  0.51721049957E+01  0.51100000000E-03 0. -1.
        -11    1    3    3    0    0  0.30830990098E+02 -0.89075464841E+01  0.20796743801E+02  0.38241324346E+02  0.51100000000E-03 0.  1.
         12    1    3    3    0    0 -0.39261743364E+00 -0.48340310138E+01  0.52064733955E+01  0.71154317866E+01  0.00000000000E+00 0. -1.
</event>
<event>
 7    1  0.5972636E-013  0.5052886E+02  0.7816164E-02  0.1300439E+00
        -11   -1    0    0    0    0  0.00000000000E+00  0.00000000000E+00  0.45593999997E+02  0.45594000000E+02  0.51100000000E-03 0.  1.
         11   -1    0    0    0    0 -0.00000000000E+00 -0.00000000000E+00 -0.45593999997E+02  0.45594000000E+02  0.51100000000E-03 0. -1.
    9900012    2    1    2    0    0  0.72685386385E+01 -0.22054902163E+02  0.33375370815E+02  0.50528859079E+02  0.29999997657E+02 0.  0.
         12    1    1    2    0    0 -0.72685386385E+01  0.22054902163E+02 -0.33375370815E+02  0.40659140921E+02  0.00000000000E+00 0. -1.
         11    1    3    3    0    0  0.17159883313E+01  0.20124296748E+01 -0.38428032630E+01  0.46649358333E+01  0.51100000000E-03 0. -1.
        -11    1    3    3    0    0  0.16557162759E+01 -0.58225981453E+01  0.18379428377E+02  0.19350644260E+02  0.51100000000E-03 0.  1.
         12    1    3    3    0    0  0.38968340313E+01 -0.18244733693E+02  0.18838745702E+02  0.26513278986E+02  0.00000000000E+00 0. -1.
</event>
<event>
 7    1  0.5972636E-013  0.5052887E+02  0.7816164E-02  0.1300439E+00
        -11   -1    0    0    0    0  0.00000000000E+00  0.00000000000E+00  0.45593999997E+02  0.45594000000E+02  0.51100000000E-03 0. -1.
         11   -1    0    0    0    0 -0.00000000000E+00 -0.00000000000E+00 -0.45593999997E+02  0.45594000000E+02  0.51100000000E-03 0.  1.
    9900012    2    1    2    0    0 -0.60797938885E+01  0.67977309001E+01 -0.39623120113E+02  0.50528872039E+02  0.30000037049E+02 0.  0.
         12    1    1    2    0    0  0.60797938885E+01 -0.67977309001E+01  0.39623120113E+02  0.40659127961E+02  0.00000000000E+00 0. -1.
         11    1    3    3    0    0 -0.87447734048E+01 -0.34249565502E+01 -0.26086444281E+01  0.97471234364E+01  0.51100000000E-03 0. -1.
        -11    1    3    3    0    0 -0.26462273530E+01  0.11374165119E+02 -0.25798278933E+02  0.28318286451E+02  0.51100000000E-03 0.  1.
         12    1    3    3    0    0  0.53112068693E+01 -0.11514776686E+01 -0.11216196752E+02  0.12463462152E+02  0.00000000000E+00 0. -1.
</event>
<event>
 7    1  0.5972636E-013  0.5052886E+02  0.7816164E-02  0.1300439E+00
        -11   -1    0    0    0    0  0.00000000000E+00  0.00000000000E+00  0.45593999997E+02  0.45594000000E+02  0.51100000000E-03 0. -1.
         11   -1    0    0    0    0 -0.00000000000E+00 -0.00000000000E+00 -0.45593999997E+02  0.45594000000E+02  0.51100000000E-03 0.  1.
    9900012    2    1    2    0    0 -0.19683909911E+02 -0.29073796718E+02  0.20504233044E+02  0.50528861572E+02  0.30000005235E+02 0.  0.
         12    1    1    2    0    0  0.19683909911E+02  0.29073796718E+02 -0.20504233044E+02  0.40659138428E+02  0.00000000000E+00 0. -1.
         11    1    3    3    0    0  0.15137121825E+01 -0.18702012795E+02  0.37332724590E+01  0.19130967844E+02  0.51100000000E-03 0.  1.
        -11    1    3    3    0    0 -0.15999256959E+02 -0.53193229757E+01  0.17264939441E+02  0.24131919822E+02  0.51100000000E-03 0. -1.
         12    1    3    3    0    0 -0.51983651343E+01 -0.50524609473E+01 -0.49397885515E+00  0.72659739060E+01  0.00000000000E+00 0. -1.
</event>
<event>
 7    1  0.5972636E-013  0.5052886E+02  0.7816164E-02  0.1300439E+00
        -11   -1    0    0    0    0  0.00000000000E+00  0.00000000000E+00  0.45593999997E+02  0.45594000000E+02  0.51100000000E-03 0.  1.
         11   -1    0    0    0    0 -0.00000000000E+00 -0.00000000000E+00 -0.45593999997E+02  0.45594000000E+02  0.51100000000E-03 0. -1.
    9900012    2    1    2    0    0  0.34145976281E+02  0.39544558916E+01  0.21715898836E+02  0.50528859825E+02  0.29999999923E+02 0.  0.
         12    1    1    2    0    0 -0.34145976281E+02 -0.39544558916E+01 -0.21715898836E+02  0.40659140175E+02  0.00000000000E+00 0. -1.
         11    1    3    3    0    0 -0.46676555198E+00 -0.12561107568E+01 -0.41164702234E+01  0.43290890121E+01  0.51100000000E-03 0. -1.
        -11    1    3    3    0    0  0.18072306706E+02  0.10470425283E+02  0.15390579041E+02  0.25944324981E+02  0.51100000000E-03 0.  1.
        -12    1    3    3    0    0  0.16540435127E+02 -0.52598586342E+01  0.10441790019E+02  0.20255445831E+02  0.00000000000E+00 0.  1.
</event>
<event>
 7    1  0.5972636E-013  0.5052886E+02  0.7816164E-02  0.1300439E+00
        -11   -1    0    0    0    0  0.00000000000E+00  0.00000000000E+00  0.45593999997E+02  0.45594000000E+02  0.51100000000E-03 0. -1.
         11   -1    0    0    0    0 -0.00000000000E+00 -0.00000000000E+00 -0.45593999997E+02  0.45594000000E+02  0.51100000000E-03 0.  1.
    9900012    2    1    2    0    0  0.37742725065E+02  0.14797641813E+02 -0.31116143482E+01  0.50528860284E+02  0.30000001320E+02 0.  0.
         12    1    1    2    0    0 -0.37742725065E+02 -0.14797641813E+02  0.31116143482E+01  0.40659139716E+02  0.00000000000E+00 0. -1.
         11    1    3    3    0    0  0.34097428104E+01  0.61584819375E+01 -0.66528186376E+01  0.96857236123E+01  0.51100000000E-03 0. -1.
        -11    1    3    3    0    0  0.22256719501E+02  0.13175422437E+02  0.81916380981E+01  0.27130356694E+02  0.51100000000E-03 0.  1.
        -12    1    3    3    0    0  0.12076262754E+02 -0.45362625610E+01 -0.46504338088E+01  0.13712779978E+02  0.00000000000E+00 0.  1.
</event>
<event>
 7    1  0.5972636E-013  0.5052885E+02  0.7816164E-02  0.1300439E+00
        -11   -1    0    0    0    0  0.00000000000E+00  0.00000000000E+00  0.45593999997E+02  0.45594000000E+02  0.51100000000E-03 0. -1.
         11   -1    0    0    0    0 -0.00000000000E+00 -0.00000000000E+00 -0.45593999997E+02  0.45594000000E+02  0.51100000000E-03 0.  1.
    9900012    2    1    2    0    0 -0.12811762867E+02  0.37033907376E+02 -0.10840412453E+02  0.50528854590E+02  0.29999984012E+02 0.  0.
         12    1    1    2    0    0  0.12811762867E+02 -0.37033907376E+02  0.10840412453E+02  0.40659145410E+02  0.00000000000E+00 0. -1.
         11    1    3    3    0    0  0.47111763067E+01  0.41090572866E+01  0.11006972047E+01  0.63475246021E+01  0.51100000000E-03 0. -1.
        -11    1    3    3    0    0 -0.19103760432E+02  0.27221406592E+02 -0.16099569256E+02  0.36948000892E+02  0.51100000000E-03 0.  1.
        -12    1    3    3    0    0  0.15808212581E+01  0.57034434976E+01  0.41584595975E+01  0.72333290956E+01  0.00000000000E+00 0.  1.
</event>
<event>
 7    1  0.5972636E-013  0.5052886E+02  0.7816164E-02  0.1300439E+00
        -11   -1    0    0    0    0  0.00000000000E+00  0.00000000000E+00  0.45593999997E+02  0.45594000000E+02  0.51100000000E-03 0.  1.
         11   -1    0    0    0    0 -0.00000000000E+00 -0.00000000000E+00 -0.45593999997E+02  0.45594000000E+02  0.51100000000E-03 0. -1.
    9900012    2    1    2    0    0 -0.21347589082E+02  0.33786894924E+02  0.74760871787E+01  0.50528859481E+02  0.29999998879E+02 0.  0.
         12    1    1    2    0    0  0.21347589082E+02 -0.33786894924E+02 -0.74760871787E+01  0.40659140519E+02  0.00000000000E+00 0. -1.
         11    1    3    3    0    0  0.28975246013E+01  0.10611316605E+02  0.50357302881E+01  0.12097696835E+02  0.51100000000E-03 0. -1.
        -11    1    3    3    0    0 -0.23873563684E+02  0.25862115800E+02  0.69005065025E+00  0.35203298805E+02  0.51100000000E-03 0.  1.
        -12    1    3    3    0    0 -0.37154999933E+00 -0.26865374811E+01  0.17503062403E+01  0.32278638407E+01  0.00000000000E+00 0.  1.
</event>
<event>
 7    1  0.5972636E-013  0.5052886E+02  0.7816164E-02  0.1300439E+00
        -11   -1    0    0    0    0  0.00000000000E+00  0.00000000000E+00  0.45593999997E+02  0.45594000000E+02  0.51100000000E-03 0. -1.
         11   -1    0    0    0    0 -0.00000000000E+00 -0.00000000000E+00 -0.45593999997E+02  0.45594000000E+02  0.51100000000E-03 0.  1.
    9900012    2    1    2    0    0  0.35170554942E+02  0.40307908079E+01  0.19998755935E+02  0.50528862670E+02  0.30000008572E+02 0.  0.
         12    1    1    2    0    0 -0.35170554942E+02 -0.40307908079E+01 -0.19998755935E+02  0.40659137330E+02  0.00000000000E+00 0. -1.
         11    1    3    3    0    0  0.33625211445E+01 -0.13560772279E+01  0.64652777341E+01  0.74125103936E+01  0.51100000000E-03 0. -1.
        -11    1    3    3    0    0  0.16530883722E+02 -0.28085237682E+01 -0.52352032317E+01  0.17566026173E+02  0.51100000000E-03 0.  1.
        -12    1    3    3    0    0  0.15277150076E+02  0.81953918040E+01  0.18768681432E+02  0.25550326103E+02  0.00000000000E+00 0.  1.
</event>
<event>
 7    1  0.5972636E-013  0.5052886E+02  0.7816164E-02  0.1300439E+00
        -11   -1    0    0    0    0  0.00000000000E+00  0.00000000000E+00  0.45593999997E+02  0.45594000000E+02  0.51100000000E-03 0.  1.
         11   -1    0    0    0    0 -0.00000000000E+00 -0.00000000000E+00 -0.45593999997E+02  0.45594000000E+02  0.51100000000E-03 0. -1.
    9900012    2    1    2    0    0  0.12470411916E+02 -0.17880724113E+02  0.34321041121E+02  0.50528864105E+02  0.30000012932E+02 0.  0.
         12    1    1    2    0    0 -0.12470411916E+02  0.17880724113E+02 -0.34321041121E+02  0.40659135895E+02  0.00000000000E+00 0. -1.
         11    1    3    3    0    0 -0.20573440161E+01 -0.99629525722E+01  0.27499056619E+02  0.29320491189E+02  0.51100000000E-03 0. -1.
        -11    1    3    3    0    0  0.13897619553E+02 -0.85514500174E+01  0.91546448566E+01  0.18710388808E+02  0.51100000000E-03 0.  1.
         12    1    3    3    0    0  0.63013637946E+00  0.63367847687E+00 -0.23326603553E+01  0.24979841076E+01  0.00000000000E+00 0. -1.
</event>
<event>
 7    1  0.5972636E-013  0.5052887E+02  0.7816164E-02  0.1300439E+00
        -11   -1    0    0    0    0  0.00000000000E+00  0.00000000000E+00  0.45593999997E+02  0.45594000000E+02  0.51100000000E-03 0. -1.
         11   -1    0    0    0    0 -0.00000000000E+00 -0.00000000000E+00 -0.45593999997E+02  0.45594000000E+02  0.51100000000E-03 0.  1.
    9900012    2    1    2    0    0 -0.24757992040E+02 -0.28760343590E+02 -0.14596219050E+02  0.50528866416E+02  0.30000019959E+02 0.  0.
         12    1    1    2    0    0  0.24757992040E+02  0.28760343590E+02  0.14596219050E+02  0.40659133584E+02  0.00000000000E+00 0. -1.
         11    1    3    3    0    0 -0.65331699172E+01 -0.28143098035E+02 -0.48685326735E+01  0.29298786440E+02  0.51100000000E-03 0. -1.
        -11    1    3    3    0    0 -0.13043560933E+02  0.11535150764E+01 -0.50706363800E+01  0.14041952585E+02  0.51100000000E-03 0.  1.
         12    1    3    3    0    0 -0.51812611898E+01 -0.17707606309E+01 -0.46570499970E+01  0.71881273920E+01  0.00000000000E+00 0. -1.
</event>
<event>
 7    1  0.5972636E-013  0.5052893E+02  0.7816164E-02  0.1300439E+00
        -11   -1    0    0    0    0  0.00000000000E+00  0.00000000000E+00  0.45593999997E+02  0.45594000000E+02  0.51100000000E-03 0. -1.
         11   -1    0    0    0    0 -0.00000000000E+00 -0.00000000000E+00 -0.45593999997E+02  0.45594000000E+02  0.51100000000E-03 0.  1.
    9900012    2    1    2    0    0  0.11195448504E+02 -0.22744086073E+02 -0.31788815423E+02  0.50528925927E+02  0.30000200847E+02 0.  0.
         12    1    1    2    0    0 -0.11195448504E+02  0.22744086073E+02  0.31788815423E+02  0.40659074073E+02  0.00000000000E+00 0. -1.
         11    1    3    3    0    0  0.88531702552E-01 -0.20885559089E+00  0.67487231613E+00  0.71197712351E+00  0.51100000000E-03 0. -1.
        -11    1    3    3    0    0 -0.95772669145E+01 -0.69787907879E+01 -0.89627941111E+01  0.14857968938E+02  0.51100000000E-03 0.  1.
        -12    1    3    3    0    0  0.20684183716E+02 -0.15556439694E+02 -0.23500893628E+02  0.34958979866E+02  0.00000000000E+00 0.  1.
</event>
<event>
 7    1  0.5972636E-013  0.5052886E+02  0.7816164E-02  0.1300439E+00
        -11   -1    0    0    0    0  0.00000000000E+00  0.00000000000E+00  0.45593999997E+02  0.45594000000E+02  0.51100000000E-03 0.  1.
         11   -1    0    0    0    0 -0.00000000000E+00 -0.00000000000E+00 -0.45593999997E+02  0.45594000000E+02  0.51100000000E-03 0. -1.
    9900012    2    1    2    0    0  0.39161956916E+02 -0.27215816225E-01  0.10931896484E+02  0.50528856245E+02  0.29999989042E+02 0.  0.
         12    1    1    2    0    0 -0.39161956916E+02  0.27215816225E-01 -0.10931896484E+02  0.40659143755E+02  0.00000000000E+00 0. -1.
         11    1    3    3    0    0  0.22417650918E+02 -0.63629702222E+01 -0.64322075858E+01  0.24174609768E+02  0.51100000000E-03 0. -1.
        -11    1    3    3    0    0  0.12686003940E+02  0.15365692329E+01  0.14833701987E+02  0.19578928875E+02  0.51100000000E-03 0.  1.
         12    1    3    3    0    0  0.40583020571E+01  0.47991851731E+01  0.25304020824E+01  0.67753176022E+01  0.00000000000E+00 0. -1.
</event>
<event>
 7    1  0.5972636E-013  0.5052886E+02  0.7816164E-02  0.1300439E+00
        -11   -1    0    0    0    0  0.00000000000E+00  0.00000000000E+00  0.45593999997E+02  0.45594000000E+02  0.51100000000E-03 0.  1.
         11   -1    0    0    0    0 -0.00000000000E+00 -0.00000000000E+00 -0.45593999997E+02  0.45594000000E+02  0.51100000000E-03 0. -1.
    9900012    2    1    2    0    0 -0.27412797786E+02  0.27835710287E+02 -0.11264001536E+02  0.50528856130E+02  0.29999988693E+02 0.  0.
         12    1    1    2    0    0  0.27412797786E+02 -0.27835710287E+02  0.11264001536E+02  0.40659143870E+02  0.00000000000E+00 0. -1.
         11    1    3    3    0    0 -0.13222779316E+02  0.20534962100E+02 -0.13944953704E+02  0.28124514136E+02  0.51100000000E-03 0. -1.
        -11    1    3    3    0    0 -0.56844576405E+00  0.42010630921E+01  0.66457856363E+01  0.78827995455E+01  0.51100000000E-03 0.  1.
        -12    1    3    3    0    0 -0.13621572705E+02  0.30996850949E+01 -0.39648334680E+01  0.14521542449E+02  0.00000000000E+00 0.  1.
</event>
<event>
 7    1  0.5972636E-013  0.5052886E+02  0.7816164E-02  0.1300439E+00
        -11   -1    0    0    0    0  0.00000000000E+00  0.00000000000E+00  0.45593999997E+02  0.45594000000E+02  0.51100000000E-03 0.  1.
         11   -1    0    0    0    0 -0.00000000000E+00 -0.00000000000E+00 -0.45593999997E+02  0.45594000000E+02  0.51100000000E-03 0. -1.
    9900012    2    1    2    0    0 -0.22050606904E+02 -0.33981096975E+02  0.34959203053E+01  0.50528859881E+02  0.30000000095E+02 0.  0.
         12    1    1    2    0    0  0.22050606904E+02  0.33981096975E+02 -0.34959203053E+01  0.40659140119E+02  0.00000000000E+00 0. -1.
         11    1    3    3    0    0 -0.97707594882E+01  0.21062825013E-01 -0.36281445149E+01  0.10422649255E+02  0.51100000000E-03 0. -1.
        -11    1    3    3    0    0 -0.14949816869E+02 -0.32226533298E+02  0.42108905982E+01  0.35773985978E+02  0.51100000000E-03 0.  1.
        -12    1    3    3    0    0  0.26699694533E+01 -0.17756265013E+01  0.29131742220E+01  0.43322246481E+01  0.00000000000E+00 0.  1.
</event>
<event>
 7    1  0.5972636E-013  0.5052880E+02  0.7816164E-02  0.1300439E+00
        -11   -1    0    0    0    0  0.00000000000E+00  0.00000000000E+00  0.45593999997E+02  0.45594000000E+02  0.51100000000E-03 0. -1.
         11   -1    0    0    0    0 -0.00000000000E+00 -0.00000000000E+00 -0.45593999997E+02  0.45594000000E+02  0.51100000000E-03 0.  1.
    9900012    2    1    2    0    0 -0.84466524392E+01  0.38234793695E+02  0.10951040118E+02  0.50528798508E+02  0.29999813545E+02 0.  0.
         12    1    1    2    0    0  0.84466524392E+01 -0.38234793695E+02 -0.10951040118E+02  0.40659201492E+02  0.00000000000E+00 0. -1.
         11    1    3    3    0    0  0.63380430911E+01  0.13837916299E+02  0.27186328810E+01  0.15461231605E+02  0.51100000000E-03 0. -1.
        -11    1    3    3    0    0 -0.16697055964E+02  0.23869632839E+02  0.27761437520E+01  0.29261886886E+02  0.51100000000E-03 0.  1.
        -12    1    3    3    0    0  0.19123604335E+01  0.52724455565E+00  0.54562634846E+01  0.58056800172E+01  0.00000000000E+00 0.  1.
</event>
<event>
 7    1  0.5972636E-013  0.5052885E+02  0.7816164E-02  0.1300439E+00
        -11   -1    0    0    0    0  0.00000000000E+00  0.00000000000E+00  0.45593999997E+02  0.45594000000E+02  0.51100000000E-03 0.  1.
         11   -1    0    0    0    0 -0.00000000000E+00 -0.00000000000E+00 -0.45593999997E+02  0.45594000000E+02  0.51100000000E-03 0. -1.
    9900012    2    1    2    0    0  0.20199932814E+02  0.91598482048E+01  0.34076769884E+02  0.50528851576E+02  0.29999974851E+02 0.  0.
         12    1    1    2    0    0 -0.20199932814E+02 -0.91598482048E+01 -0.34076769884E+02  0.40659148424E+02  0.00000000000E+00 0. -1.
         11    1    3    3    0    0 -0.24335331474E+01 -0.92597851061E+00 -0.33124911492E+01  0.42133261987E+01  0.51100000000E-03 0. -1.
        -11    1    3    3    0    0  0.73216278898E+01  0.95005947536E+01  0.15610661656E+02  0.19686551075E+02  0.51100000000E-03 0.  1.
         12    1    3    3    0    0  0.15311838072E+02  0.58523196175E+00  0.21778599376E+02  0.26628974302E+02  0.00000000000E+00 0. -1.
</event>
<event>
 7    1  0.5972636E-013  0.5052889E+02  0.7816164E-02  0.1300439E+00
        -11   -1    0    0    0    0  0.00000000000E+00  0.00000000000E+00  0.45593999997E+02  0.45594000000E+02  0.51100000000E-03 0.  1.
         11   -1    0    0    0    0 -0.00000000000E+00 -0.00000000000E+00 -0.45593999997E+02  0.45594000000E+02  0.51100000000E-03 0. -1.
    9900012    2    1    2    0    0 -0.85299437869E+01  0.10539893761E+02  0.38331625857E+02  0.50528894718E+02  0.30000105983E+02 0.  0.
         12    1    1    2    0    0  0.85299437869E+01 -0.10539893761E+02 -0.38331625857E+02  0.40659105282E+02  0.00000000000E+00 0. -1.
         11    1    3    3    0    0 -0.91949976693E+01  0.21259387192E+01 -0.69496207440E+00  0.94631163008E+01  0.51100000000E-03 0. -1.
        -11    1    3    3    0    0  0.30573103279E+01  0.83299895255E+01  0.36588230999E+02  0.37648831587E+02  0.51100000000E-03 0.  1.
        -12    1    3    3    0    0 -0.23922564455E+01  0.83965516481E-01  0.24383569326E+01  0.34169468301E+01  0.00000000000E+00 0.  1.
</event>
<event>
 7    1  0.5972636E-013  0.5052887E+02  0.7816164E-02  0.1300439E+00
        -11   -1    0    0    0    0  0.00000000000E+00  0.00000000000E+00  0.45593999997E+02  0.45594000000E+02  0.51100000000E-03 0.  1.
         11   -1    0    0    0    0 -0.00000000000E+00 -0.00000000000E+00 -0.45593999997E+02  0.45594000000E+02  0.51100000000E-03 0. -1.
    9900012    2    1    2    0    0  0.11193839348E+02  0.20002316337E+02  0.33582290196E+02  0.50528869254E+02  0.30000028585E+02 0.  0.
         12    1    1    2    0    0 -0.11193839348E+02 -0.20002316337E+02 -0.33582290196E+02  0.40659130746E+02  0.00000000000E+00 0. -1.
         11    1    3    3    0    0 -0.15192619919E+01 -0.69388381603E+01  0.33217333892E+01  0.78415269549E+01  0.51100000000E-03 0. -1.
        -11    1    3    3    0    0  0.93098565059E+01  0.14784850276E+02  0.18178038288E+02  0.25213216814E+02  0.51100000000E-03 0.  1.
         12    1    3    3    0    0  0.34032448339E+01  0.12156304221E+02  0.12082518519E+02  0.17474125485E+02  0.00000000000E+00 0. -1.
</event>
<event>
 7    1  0.5972636E-013  0.5052887E+02  0.7816164E-02  0.1300439E+00
        -11   -1    0    0    0    0  0.00000000000E+00  0.00000000000E+00  0.45593999997E+02  0.45594000000E+02  0.51100000000E-03 0. -1.
         11   -1    0    0    0    0 -0.00000000000E+00 -0.00000000000E+00 -0.45593999997E+02  0.45594000000E+02  0.51100000000E-03 0.  1.
    9900012    2    1    2    0    0  0.11700478886E+02  0.30717804777E+02 -0.23930739564E+02  0.50528867785E+02  0.30000024118E+02 0.  0.
         12    1    1    2    0    0 -0.11700478886E+02 -0.30717804777E+02  0.23930739564E+02  0.40659132215E+02  0.00000000000E+00 0. -1.
         11    1    3    3    0    0  0.35366533090E+01  0.26192092333E+02 -0.98094787160E+01  0.28191479038E+02  0.51100000000E-03 0. -1.
        -11    1    3    3    0    0 -0.41153488917E+01  0.25266643463E-01 -0.45239142193E+01  0.61157611978E+01  0.51100000000E-03 0.  1.
         12    1    3    3    0    0  0.12279174469E+02  0.45004458005E+01 -0.95973466285E+01  0.16221627549E+02  0.00000000000E+00 0. -1.
</event>
<event>
 7    1  0.5972636E-013  0.5052885E+02  0.7816164E-02  0.1300439E+00
        -11   -1    0    0    0    0  0.00000000000E+00  0.00000000000E+00  0.45593999997E+02  0.45594000000E+02  0.51100000000E-03 0. -1.
         11   -1    0    0    0    0 -0.00000000000E+00 -0.00000000000E+00 -0.45593999997E+02  0.45594000000E+02  0.51100000000E-03 0.  1.
    9900012    2    1    2    0    0 -0.94254200820E+01  0.17048606241E+02 -0.35688559102E+02  0.50528846428E+02  0.29999959201E+02 0.  0.
         12    1    1    2    0    0  0.94254200820E+01 -0.17048606241E+02  0.35688559102E+02  0.40659153572E+02  0.00000000000E+00 0. -1.
         11    1    3    3    0    0 -0.42072480038E+01 -0.41223921671E+01  0.18979149856E+01  0.61884678636E+01  0.51100000000E-03 0. -1.
        -11    1    3    3    0    0  0.14185823196E+01  0.29060873581E+01 -0.10618176154E+02  0.11099702007E+02  0.51100000000E-03 0.  1.
         12    1    3    3    0    0 -0.66367543978E+01  0.18264911050E+02 -0.26968297933E+02  0.33240676557E+02  0.00000000000E+00 0. -1.
</event>
<event>
 7    1  0.5972636E-013  0.5052886E+02  0.7816164E-02  0.1300439E+00
        -11   -1    0    0    0    0  0.00000000000E+00  0.00000000000E+00  0.45593999997E+02  0.45594000000E+02  0.51100000000E-03 0. -1.
         11   -1    0    0    0    0 -0.00000000000E+00 -0.00000000000E+00 -0.45593999997E+02  0.45594000000E+02  0.51100000000E-03 0.  1.
    9900012    2    1    2    0    0 -0.17702505359E+02 -0.35933458514E+02 -0.69694818676E+01  0.50528858171E+02  0.29999994896E+02 0.  0.
         12    1    1    2    0    0  0.17702505359E+02  0.35933458514E+02  0.69694818676E+01  0.40659141829E+02  0.00000000000E+00 0. -1.
         11    1    3    3    0    0 -0.18573939314E+02 -0.17230449203E+02  0.37580599123E+01  0.25612548017E+02  0.51100000000E-03 0. -1.
        -11    1    3    3    0    0 -0.33223020971E+01 -0.15816058546E+02 -0.11404720081E+02  0.19780117278E+02  0.51100000000E-03 0.  1.
         12    1    3    3    0    0  0.41937360524E+01 -0.28869507654E+01  0.67717830097E+00  0.51361928751E+01  0.00000000000E+00 0. -1.
</event>
<event>
 7    1  0.7343326E-013  0.5052885E+02  0.7816164E-02  0.1300439E+00
        -11   -1    0    0    0    0  0.00000000000E+00  0.00000000000E+00  0.45593999997E+02  0.45594000000E+02  0.51100000000E-03 0.  1.
         11   -1    0    0    0    0 -0.00000000000E+00 -0.00000000000E+00 -0.45593999997E+02  0.45594000000E+02  0.51100000000E-03 0. -1.
    9900012    2    1    2    0    0  0.40572167491E+02 -0.12466978362E+01  0.23477038813E+01  0.50528846739E+02  0.29999960148E+02 0.  0.
         12    1    1    2    0    0 -0.40572167491E+02  0.12466978362E+01 -0.23477038813E+01  0.40659153261E+02  0.00000000000E+00 0. -1.
         11    1    3    3    0    0  0.94245049874E+01  0.15719586400E+01 -0.10080087110E+02  0.13888862611E+02  0.51100000000E-03 0. -1.
        -11    1    3    3    0    0  0.90389953642E+01  0.30524719311E+01  0.96956523358E+01  0.13602451858E+02  0.51100000000E-03 0.  1.
        -12    1    3    3    0    0  0.22108667139E+02 -0.58711284073E+01  0.27321386554E+01  0.23037532270E+02  0.00000000000E+00 0.  1.
</event>
<event>
 7    1  0.5972636E-013  0.5052878E+02  0.7816164E-02  0.1300439E+00
        -11   -1    0    0    0    0  0.00000000000E+00  0.00000000000E+00  0.45593999997E+02  0.45594000000E+02  0.51100000000E-03 0. -1.
         11   -1    0    0    0    0 -0.00000000000E+00 -0.00000000000E+00 -0.45593999997E+02  0.45594000000E+02  0.51100000000E-03 0.  1.
    9900012    2    1    2    0    0 -0.63501068566E+00  0.39988613974E+02 -0.73266546328E+01  0.50528777747E+02  0.29999750439E+02 0.  0.
         12    1    1    2    0    0  0.63501068566E+00 -0.39988613974E+02  0.73266546328E+01  0.40659222253E+02  0.00000000000E+00 0. -1.
         11    1    3    3    0    0 -0.15669977651E+01  0.74954645416E+01  0.54489977288E+01  0.93983534302E+01  0.51100000000E-03 0. -1.
        -11    1    3    3    0    0 -0.61275240627E+01  0.29410139630E+02 -0.14309921638E+02  0.33275767786E+02  0.51100000000E-03 0.  1.
        -12    1    3    3    0    0  0.70595111422E+01  0.30830098018E+01  0.15342692761E+01  0.78546565307E+01  0.00000000000E+00 0.  1.
</event>
<event>
 7    1  0.5972636E-013  0.5052886E+02  0.7816164E-02  0.1300439E+00
        -11   -1    0    0    0    0  0.00000000000E+00  0.00000000000E+00  0.45593999997E+02  0.45594000000E+02  0.51100000000E-03 0.  1.
         11   -1    0    0    0    0 -0.00000000000E+00 -0.00000000000E+00 -0.45593999997E+02  0.45594000000E+02  0.51100000000E-03 0. -1.
    9900012    2    1    2    0    0  0.13110706924E+02 -0.41404754763E+01  0.38263972473E+02  0.50528858806E+02  0.29999996828E+02 0.  0.
         12    1    1    2    0    0 -0.13110706924E+02  0.41404754763E+01 -0.38263972473E+02  0.40659141194E+02  0.00000000000E+00 0. -1.
         11    1    3    3    0    0 -0.45425830416E+01 -0.97103796725E+00  0.39666984850E+01  0.61084099859E+01  0.51100000000E-03 0. -1.
        -11    1    3    3    0    0  0.14383757882E+02 -0.13600505514E+01  0.37057745207E+02  0.39774598784E+02  0.51100000000E-03 0.  1.
        -12    1    3    3    0    0  0.32695320839E+01 -0.18093869577E+01 -0.27604712195E+01  0.46458500368E+01  0.00000000000E+00 0.  1.
</event>
<event>
 7    1  0.5972636E-013  0.5052886E+02  0.7816164E-02  0.1300439E+00
        -11   -1    0    0    0    0  0.00000000000E+00  0.00000000000E+00  0.45593999997E+02  0.45594000000E+02  0.51100000000E-03 0.  1.
         11   -1    0    0    0    0 -0.00000000000E+00 -0.00000000000E+00 -0.45593999997E+02  0.45594000000E+02  0.51100000000E-03 0. -1.
    9900012    2    1    2    0    0  0.34962673511E+02  0.16344673695E+02 -0.12791732248E+02  0.50528864358E+02  0.30000013702E+02 0.  0.
         12    1    1    2    0    0 -0.34962673511E+02 -0.16344673695E+02  0.12791732248E+02  0.40659135642E+02  0.00000000000E+00 0. -1.
         11    1    3    3    0    0 -0.25896617212E+01 -0.44505663718E+01 -0.31349780826E+01  0.60284306996E+01  0.51100000000E-03 0. -1.
        -11    1    3    3    0    0  0.19529275902E+02  0.70195299621E+01 -0.48616540518E+01  0.21314363667E+02  0.51100000000E-03 0.  1.
         12    1    3    3    0    0  0.18023059331E+02  0.13775710105E+02 -0.47951001141E+01  0.23186069991E+02  0.00000000000E+00 0. -1.
</event>
<event>
 7    1  0.5972636E-013  0.5052886E+02  0.7816164E-02  0.1300439E+00
        -11   -1    0    0    0    0  0.00000000000E+00  0.00000000000E+00  0.45593999997E+02  0.45594000000E+02  0.51100000000E-03 0.  1.
         11   -1    0    0    0    0 -0.00000000000E+00 -0.00000000000E+00 -0.45593999997E+02  0.45594000000E+02  0.51100000000E-03 0. -1.
    9900012    2    1    2    0    0 -0.33357714882E+02  0.17266611539E+02 -0.15565752931E+02  0.50528859816E+02  0.29999999898E+02 0.  0.
         12    1    1    2    0    0  0.33357714882E+02 -0.17266611539E+02  0.15565752931E+02  0.40659140184E+02  0.00000000000E+00 0. -1.
         11    1    3    3    0    0 -0.11152711941E+02 -0.30822455698E+01 -0.82296976265E+01  0.14198983931E+02  0.51100000000E-03 0.  1.
        -11    1    3    3    0    0 -0.57420498382E+01  0.13323103407E+02 -0.10815211908E+02  0.18095442234E+02  0.51100000000E-03 0. -1.
        -12    1    3    3    0    0 -0.16462953102E+02  0.70257537010E+01  0.34791566037E+01  0.18234433652E+02  0.00000000000E+00 0.  1.
</event>
<event>
 7    1  0.5972636E-013  0.5052888E+02  0.7816164E-02  0.1300439E+00
        -11   -1    0    0    0    0  0.00000000000E+00  0.00000000000E+00  0.45593999997E+02  0.45594000000E+02  0.51100000000E-03 0. -1.
         11   -1    0    0    0    0 -0.00000000000E+00 -0.00000000000E+00 -0.45593999997E+02  0.45594000000E+02  0.51100000000E-03 0.  1.
    9900012    2    1    2    0    0 -0.39030885237E+02  0.49333985281E+01  0.10267219293E+02  0.50528877832E+02  0.30000054659E+02 0.  0.
         12    1    1    2    0    0  0.39030885237E+02 -0.49333985281E+01 -0.10267219293E+02  0.40659122168E+02  0.00000000000E+00 0. -1.
         11    1    3    3    0    0 -0.26451995053E+02 -0.78608663318E+01  0.72825935694E+01  0.28540102157E+02  0.51100000000E-03 0. -1.
        -11    1    3    3    0    0 -0.13857651084E+02  0.64251924594E+01  0.17279369856E+01  0.15372161793E+02  0.51100000000E-03 0.  1.
         12    1    3    3    0    0  0.12787608999E+01  0.63690724005E+01  0.12566887384E+01  0.66166138823E+01  0.00000000000E+00 0. -1.
</event>
<event>
 7    1  0.5972636E-013  0.5052886E+02  0.7816164E-02  0.1300439E+00
        -11   -1    0    0    0    0  0.00000000000E+00  0.00000000000E+00  0.45593999997E+02  0.45594000000E+02  0.51100000000E-03 0.  1.
         11   -1    0    0    0    0 -0.00000000000E+00 -0.00000000000E+00 -0.45593999997E+02  0.45594000000E+02  0.51100000000E-03 0. -1.
    9900012    2    1    2    0    0  0.15454302730E+02  0.11512662894E+02  0.35802079355E+02  0.50528858766E+02  0.29999996705E+02 0.  0.
         12    1    1    2    0    0 -0.15454302730E+02 -0.11512662894E+02 -0.35802079355E+02  0.40659141234E+02  0.00000000000E+00 0. -1.
         11    1    3    3    0    0 -0.17553519641E+01 -0.23910158006E+01 -0.39504954430E+00  0.29923705453E+01  0.51100000000E-03 0. -1.
        -11    1    3    3    0    0  0.20572902530E+02  0.16177900679E+02  0.34042478986E+02  0.42940181237E+02  0.51100000000E-03 0.  1.
        -12    1    3    3    0    0 -0.33632478360E+01 -0.22742219843E+01  0.21546499129E+01  0.45963069836E+01  0.00000000000E+00 0.  1.
</event>
<event>
 7    1  0.5972636E-013  0.5052885E+02  0.7816164E-02  0.1300439E+00
        -11   -1    0    0    0    0  0.00000000000E+00  0.00000000000E+00  0.45593999997E+02  0.45594000000E+02  0.51100000000E-03 0. -1.
         11   -1    0    0    0    0 -0.00000000000E+00 -0.00000000000E+00 -0.45593999997E+02  0.45594000000E+02  0.51100000000E-03 0.  1.
    9900012    2    1    2    0    0 -0.29817609372E+02  0.26020386676E+02  0.93282270752E+01  0.50528853774E+02  0.29999981532E+02 0.  0.
         12    1    1    2    0    0  0.29817609372E+02 -0.26020386676E+02 -0.93282270752E+01  0.40659146226E+02  0.00000000000E+00 0. -1.
         11    1    3    3    0    0 -0.11039271837E+01  0.15610332804E+02 -0.17974325382E+00  0.15650349944E+02  0.51100000000E-03 0. -1.
        -11    1    3    3    0    0 -0.27218067113E+02  0.12331575354E+02  0.11202237669E+02  0.31912083247E+02  0.51100000000E-03 0.  1.
        -12    1    3    3    0    0 -0.14956150753E+01 -0.19215214815E+01 -0.16942673400E+01  0.29664205833E+01  0.00000000000E+00 0.  1.
</event>
<event>
 7    1  0.5972636E-013  0.5052882E+02  0.7816164E-02  0.1300439E+00
        -11   -1    0    0    0    0  0.00000000000E+00  0.00000000000E+00  0.45593999997E+02  0.45594000000E+02  0.51100000000E-03 0.  1.
         11   -1    0    0    0    0 -0.00000000000E+00 -0.00000000000E+00 -0.45593999997E+02  0.45594000000E+02  0.51100000000E-03 0. -1.
    9900012    2    1    2    0    0 -0.62366305858E+01  0.14165419937E+02  0.37598066561E+02  0.50528815402E+02  0.29999864897E+02 0.  0.
         12    1    1    2    0    0  0.62366305858E+01 -0.14165419937E+02 -0.37598066561E+02  0.40659184598E+02  0.00000000000E+00 0. -1.
         11    1    3    3    0    0 -0.17989000471E+01 -0.19664629304E+01 -0.57684430243E+00  0.27268603644E+01  0.51100000000E-03 0. -1.
        -11    1    3    3    0    0 -0.36020500585E+01  0.19733330387E+02  0.16962774117E+02  0.26270036140E+02  0.51100000000E-03 0.  1.
        -12    1    3    3    0    0 -0.83568048011E+00 -0.36014475199E+01  0.21212136746E+02  0.21531918899E+02  0.00000000000E+00 0.  1.
</event>
<event>
 7    1  0.5972636E-013  0.5052886E+02  0.7816164E-02  0.1300439E+00
        -11   -1    0    0    0    0  0.00000000000E+00  0.00000000000E+00  0.45593999997E+02  0.45594000000E+02  0.51100000000E-03 0.  1.
         11   -1    0    0    0    0 -0.00000000000E+00 -0.00000000000E+00 -0.45593999997E+02  0.45594000000E+02  0.51100000000E-03 0. -1.
    9900012    2    1    2    0    0 -0.18122608260E+02  0.11693661553E+02  0.34467305061E+02  0.50528858729E+02  0.29999996594E+02 0.  0.
         12    1    1    2    0    0  0.18122608260E+02 -0.11693661553E+02 -0.34467305061E+02  0.40659141271E+02  0.00000000000E+00 0. -1.
         11    1    3    3    0    0 -0.17762674487E+02  0.21823633390E+00  0.76034216049E+01  0.19322842762E+02  0.51100000000E-03 0. -1.
        -11    1    3    3    0    0 -0.22730214554E+01  0.13098112664E+02  0.21386976789E+02  0.25181937144E+02  0.51100000000E-03 0.  1.
        -12    1    3    3    0    0  0.19130876821E+01 -0.16226874453E+01  0.54769066676E+01  0.60240788234E+01  0.00000000000E+00 0.  1.
</event>
<event>
 7    1  0.5972636E-013  0.5052885E+02  0.7816164E-02  0.1300439E+00
        -11   -1    0    0    0    0  0.00000000000E+00  0.00000000000E+00  0.45593999997E+02  0.45594000000E+02  0.51100000000E-03 0. -1.
         11   -1    0    0    0    0 -0.00000000000E+00 -0.00000000000E+00 -0.45593999997E+02  0.45594000000E+02  0.51100000000E-03 0.  1.
    9900012    2    1    2    0    0 -0.33067009015E+02 -0.48075131008E+01  0.23165211102E+02  0.50528852532E+02  0.29999977755E+02 0.  0.
         12    1    1    2    0    0  0.33067009015E+02  0.48075131008E+01 -0.23165211102E+02  0.40659147468E+02  0.00000000000E+00 0. -1.
         11    1    3    3    0    0  0.43559154669E+01 -0.13097280046E+01  0.17494933734E+01  0.48734089020E+01  0.51100000000E-03 0. -1.
        -11    1    3    3    0    0 -0.28814679022E+02  0.37624352972E+01  0.15317910591E+02  0.32849353596E+02  0.51100000000E-03 0.  1.
        -12    1    3    3    0    0 -0.86082454599E+01 -0.72602203933E+01  0.60978071376E+01  0.12806090033E+02  0.00000000000E+00 0.  1.
</event>
<event>
 7    1  0.5972636E-013  0.5052889E+02  0.7816164E-02  0.1300439E+00
        -11   -1    0    0    0    0  0.00000000000E+00  0.00000000000E+00  0.45593999997E+02  0.45594000000E+02  0.51100000000E-03 0.  1.
         11   -1    0    0    0    0 -0.00000000000E+00 -0.00000000000E+00 -0.45593999997E+02  0.45594000000E+02  0.51100000000E-03 0. -1.
    9900012    2    1    2    0    0 -0.74933714023E+01  0.36804074320E+02  0.15571538150E+02  0.50528889067E+02  0.30000088809E+02 0.  0.
         12    1    1    2    0    0  0.74933714023E+01 -0.36804074320E+02 -0.15571538150E+02  0.40659110933E+02  0.00000000000E+00 0. -1.
         11    1    3    3    0    0  0.35565888288E+01  0.12825076755E+02 -0.47368153847E+01  0.14126901222E+02  0.51100000000E-03 0. -1.
        -11    1    3    3    0    0 -0.10909958330E+02  0.18897465779E+02  0.22056550132E+02  0.31026324430E+02  0.51100000000E-03 0.  1.
        -12    1    3    3    0    0 -0.14000190063E+00  0.50815317856E+01 -0.17481965975E+01  0.53756634161E+01  0.00000000000E+00 0.  1.
</event>
<event>
 7    1  0.5972636E-013  0.5052886E+02  0.7816164E-02  0.1300439E+00
        -11   -1    0    0    0    0  0.00000000000E+00  0.00000000000E+00  0.45593999997E+02  0.45594000000E+02  0.51100000000E-03 0.  1.
         11   -1    0    0    0    0 -0.00000000000E+00 -0.00000000000E+00 -0.45593999997E+02  0.45594000000E+02  0.51100000000E-03 0. -1.
    9900012    2    1    2    0    0  0.29494956112E+02 -0.82096230869E+01  0.26754725723E+02  0.50528859628E+02  0.29999999325E+02 0.  0.
         12    1    1    2    0    0 -0.29494956112E+02  0.82096230869E+01 -0.26754725723E+02  0.40659140372E+02  0.00000000000E+00 0. -1.
         11    1    3    3    0    0  0.23032701319E+02 -0.15578583376E+01  0.15478052747E+02  0.27793926850E+02  0.51100000000E-03 0.  1.
        -11    1    3    3    0    0 -0.44713140719E+01 -0.45584719861E+01  0.95228570255E+01  0.11465475244E+02  0.51100000000E-03 0. -1.
         12    1    3    3    0    0  0.10933568865E+02 -0.20932927632E+01  0.17538159505E+01  0.11269457534E+02  0.00000000000E+00 0. -1.
</event>
<event>
 7    1  0.5972636E-013  0.5052887E+02  0.7816164E-02  0.1300439E+00
        -11   -1    0    0    0    0  0.00000000000E+00  0.00000000000E+00  0.45593999997E+02  0.45594000000E+02  0.51100000000E-03 0. -1.
         11   -1    0    0    0    0 -0.00000000000E+00 -0.00000000000E+00 -0.45593999997E+02  0.45594000000E+02  0.51100000000E-03 0.  1.
    9900012    2    1    2    0    0  0.16095977830E+02 -0.26977755237E+02 -0.25812491692E+02  0.50528874244E+02  0.30000043751E+02 0.  0.
         12    1    1    2    0    0 -0.16095977830E+02  0.26977755237E+02  0.25812491692E+02  0.40659125756E+02  0.00000000000E+00 0. -1.
         11    1    3    3    0    0  0.13382242723E+02 -0.61410708173E+01 -0.59059074009E+01  0.15864328336E+02  0.51100000000E-03 0. -1.
        -11    1    3    3    0    0 -0.26737465745E+01 -0.20611714351E+02 -0.93086686540E+01  0.22773734906E+02  0.51100000000E-03 0.  1.
        -12    1    3    3    0    0  0.53874816813E+01 -0.22497006871E+00 -0.10597915637E+02  0.11890811001E+02  0.00000000000E+00 0.  1.
</event>
<event>
 7    1  0.5972636E-013  0.5052886E+02  0.7816164E-02  0.1300439E+00
        -11   -1    0    0    0    0  0.00000000000E+00  0.00000000000E+00  0.45593999997E+02  0.45594000000E+02  0.51100000000E-03 0.  1.
         11   -1    0    0    0    0 -0.00000000000E+00 -0.00000000000E+00 -0.45593999997E+02  0.45594000000E+02  0.51100000000E-03 0. -1.
    9900012    2    1    2    0    0 -0.13650259209E-01 -0.36909417118E+02  0.17054638355E+02  0.50528856530E+02  0.29999989909E+02 0.  0.
         12    1    1    2    0    0  0.13650259209E-01  0.36909417118E+02 -0.17054638355E+02  0.40659143470E+02  0.00000000000E+00 0. -1.
         11    1    3    3    0    0 -0.70145744620E+01 -0.15131982805E+02 -0.45935521177E+00  0.16685088132E+02  0.51100000000E-03 0. -1.
        -11    1    3    3    0    0  0.57006153018E+01 -0.24075336924E+02  0.18636468675E+02  0.30974777283E+02  0.51100000000E-03 0.  1.
        -12    1    3    3    0    0  0.13003089010E+01  0.22979026114E+01 -0.11224751080E+01  0.28689911150E+01  0.00000000000E+00 0.  1.
</event>
<event>
 7    1  0.5972636E-013  0.5052886E+02  0.7816164E-02  0.1300439E+00
        -11   -1    0    0    0    0  0.00000000000E+00  0.00000000000E+00  0.45593999997E+02  0.45594000000E+02  0.51100000000E-03 0. -1.
         11   -1    0    0    0    0 -0.00000000000E+00 -0.00000000000E+00 -0.45593999997E+02  0.45594000000E+02  0.51100000000E-03 0.  1.
    9900012    2    1    2    0    0  0.11319649627E+02  0.79412662017E+01 -0.38235684250E+02  0.50528859248E+02  0.29999998171E+02 0.  0.
         12    1    1    2    0    0 -0.11319649627E+02 -0.79412662017E+01  0.38235684250E+02  0.40659140752E+02  0.00000000000E+00 0. -1.
         11    1    3    3    0    0  0.14868097950E+02  0.37498223955E+01 -0.89092302397E+01  0.17734031927E+02  0.51100000000E-03 0. -1.
        -11    1    3    3    0    0 -0.74490811532E+01  0.40219771074E+01 -0.10112330299E+02  0.13188037542E+02  0.51100000000E-03 0.  1.
        -12    1    3    3    0    0  0.39006328303E+01  0.16946669877E+00 -0.19214123712E+02  0.19606789779E+02  0.00000000000E+00 0.  1.
</event>
<event>
 7    1  0.5972636E-013  0.5052886E+02  0.7816164E-02  0.1300439E+00
        -11   -1    0    0    0    0  0.00000000000E+00  0.00000000000E+00  0.45593999997E+02  0.45594000000E+02  0.51100000000E-03 0.  1.
         11   -1    0    0    0    0 -0.00000000000E+00 -0.00000000000E+00 -0.45593999997E+02  0.45594000000E+02  0.51100000000E-03 0. -1.
    9900012    2    1    2    0    0  0.33355485157E+02 -0.15739187723E+02  0.17113021955E+02  0.50528856617E+02  0.29999990173E+02 0.  0.
         12    1    1    2    0    0 -0.33355485157E+02  0.15739187723E+02 -0.17113021955E+02  0.40659143383E+02  0.00000000000E+00 0. -1.
         11    1    3    3    0    0  0.24349596268E+02 -0.55286325643E+00  0.19215583683E+02  0.31023332392E+02  0.51100000000E-03 0. -1.
        -11    1    3    3    0    0  0.89125460057E+01 -0.14642183332E+02  0.19507068542E+00  0.17142492872E+02  0.51100000000E-03 0.  1.
         12    1    3    3    0    0  0.93342883187E-01 -0.54414113389E+00 -0.22976324131E+01  0.23630313526E+01  0.00000000000E+00 0. -1.
</event>
<event>
 7    1  0.5972636E-013  0.5052886E+02  0.7816164E-02  0.1300439E+00
        -11   -1    0    0    0    0  0.00000000000E+00  0.00000000000E+00  0.45593999997E+02  0.45594000000E+02  0.51100000000E-03 0. -1.
         11   -1    0    0    0    0 -0.00000000000E+00 -0.00000000000E+00 -0.45593999997E+02  0.45594000000E+02  0.51100000000E-03 0.  1.
    9900012    2    1    2    0    0 -0.29516185183E+02 -0.13550363675E+02 -0.24461159036E+02  0.50528857794E+02  0.29999993752E+02 0.  0.
         12    1    1    2    0    0  0.29516185183E+02  0.13550363675E+02  0.24461159036E+02  0.40659142206E+02  0.00000000000E+00 0. -1.
         11    1    3    3    0    0 -0.67802257045E+01 -0.79525559002E+01  0.43153532565E+01  0.11306497244E+02  0.51100000000E-03 0. -1.
        -11    1    3    3    0    0 -0.83803484690E+01  0.37819482109E+01 -0.73015884718E+01  0.11740807775E+02  0.51100000000E-03 0.  1.
         12    1    3    3    0    0 -0.14355611010E+02 -0.93797559856E+01 -0.21474923821E+02  0.27481552775E+02  0.00000000000E+00 0. -1.
</event>
<event>
 7    1  0.5972636E-013  0.5052885E+02  0.7816164E-02  0.1300439E+00
        -11   -1    0    0    0    0  0.00000000000E+00  0.00000000000E+00  0.45593999997E+02  0.45594000000E+02  0.51100000000E-03 0. -1.
         11   -1    0    0    0    0 -0.00000000000E+00 -0.00000000000E+00 -0.45593999997E+02  0.45594000000E+02  0.51100000000E-03 0.  1.
    9900012    2    1    2    0    0 -0.18070160799E+02 -0.36314643961E+02  0.28075607765E+01  0.50528850048E+02  0.29999970207E+02 0.  0.
         12    1    1    2    0    0  0.18070160799E+02  0.36314643961E+02 -0.28075607765E+01  0.40659149952E+02  0.00000000000E+00 0. -1.
         11    1    3    3    0    0  0.71553892232E+01 -0.15568869334E+02 -0.23661067885E+01  0.17297044513E+02  0.51100000000E-03 0. -1.
        -11    1    3    3    0    0 -0.14620730095E+02 -0.12380591071E+02  0.46501615290E+01  0.19714684534E+02  0.51100000000E-03 0.  1.
         12    1    3    3    0    0 -0.10604819927E+02 -0.83651835552E+01  0.52350603591E+00  0.13517121001E+02  0.00000000000E+00 0. -1.
</event>
<event>
 7    1  0.5972636E-013  0.5052886E+02  0.7816164E-02  0.1300439E+00
        -11   -1    0    0    0    0  0.00000000000E+00  0.00000000000E+00  0.45593999997E+02  0.45594000000E+02  0.51100000000E-03 0. -1.
         11   -1    0    0    0    0 -0.00000000000E+00 -0.00000000000E+00 -0.45593999997E+02  0.45594000000E+02  0.51100000000E-03 0.  1.
    9900012    2    1    2    0    0  0.30494563940E+02  0.26455525469E+02 -0.48324110315E+01  0.50528862600E+02  0.30000008358E+02 0.  0.
         12    1    1    2    0    0 -0.30494563940E+02 -0.26455525469E+02  0.48324110315E+01  0.40659137400E+02  0.00000000000E+00 0. -1.
         11    1    3    3    0    0  0.11897814706E+01  0.10463021217E+02 -0.59032039604E+01  0.12072208174E+02  0.51100000000E-03 0. -1.
        -11    1    3    3    0    0  0.31973877275E+02  0.14962616460E+02  0.22249345270E+01  0.35371726749E+02  0.51100000000E-03 0.  1.
        -12    1    3    3    0    0 -0.26690948051E+01  0.10298877924E+01 -0.11541415981E+01  0.30849276769E+01  0.00000000000E+00 0.  1.
</event>
<event>
 7    1  0.5972636E-013  0.5052887E+02  0.7816164E-02  0.1300439E+00
        -11   -1    0    0    0    0  0.00000000000E+00  0.00000000000E+00  0.45593999997E+02  0.45594000000E+02  0.51100000000E-03 0. -1.
         11   -1    0    0    0    0 -0.00000000000E+00 -0.00000000000E+00 -0.45593999997E+02  0.45594000000E+02  0.51100000000E-03 0.  1.
    9900012    2    1    2    0    0 -0.15963180053E+02 -0.36683537238E+02 -0.72567120869E+01  0.50528869512E+02  0.30000029369E+02 0.  0.
         12    1    1    2    0    0  0.15963180053E+02  0.36683537238E+02  0.72567120869E+01  0.40659130488E+02  0.00000000000E+00 0. -1.
         11    1    3    3    0    0 -0.18349738344E+02 -0.23671771244E+02 -0.14235702248E+01  0.29984866242E+02  0.51100000000E-03 0. -1.
        -11    1    3    3    0    0  0.15337354641E+01  0.93567668018E+00 -0.63115963002E+01  0.65623230217E+01  0.51100000000E-03 0.  1.
        -12    1    3    3    0    0  0.85282282603E+00 -0.13947442674E+02  0.47845443803E+00  0.13981680249E+02  0.00000000000E+00 0.  1.
</event>
<event>
 7    1  0.5972636E-013  0.5052885E+02  0.7816164E-02  0.1300439E+00
        -11   -1    0    0    0    0  0.00000000000E+00  0.00000000000E+00  0.45593999997E+02  0.45594000000E+02  0.51100000000E-03 0. -1.
         11   -1    0    0    0    0 -0.00000000000E+00 -0.00000000000E+00 -0.45593999997E+02  0.45594000000E+02  0.51100000000E-03 0.  1.
    9900012    2    1    2    0    0  0.16548255345E+02 -0.19685275545E+02 -0.31493035184E+02  0.50528854740E+02  0.29999984466E+02 0.  0.
         12    1    1    2    0    0 -0.16548255345E+02  0.19685275545E+02  0.31493035184E+02  0.40659145260E+02  0.00000000000E+00 0. -1.
         11    1    3    3    0    0 -0.23571593415E+01 -0.56572580468E+01 -0.12081101381E+02  0.13546725789E+02  0.51100000000E-03 0. -1.
        -11    1    3    3    0    0  0.23255193494E+02 -0.12117882812E+02 -0.18630906971E+02  0.32167651502E+02  0.51100000000E-03 0.  1.
        -12    1    3    3    0    0 -0.43497788076E+01 -0.19101346857E+01 -0.78102683114E+00  0.48144774487E+01  0.00000000000E+00 0.  1.
</event>
<event>
 7    1  0.5972636E-013  0.5052886E+02  0.7816164E-02  0.1300439E+00
        -11   -1    0    0    0    0  0.00000000000E+00  0.00000000000E+00  0.45593999997E+02  0.45594000000E+02  0.51100000000E-03 0.  1.
         11   -1    0    0    0    0 -0.00000000000E+00 -0.00000000000E+00 -0.45593999997E+02  0.45594000000E+02  0.51100000000E-03 0. -1.
    9900012    2    1    2    0    0  0.19550398948E+01 -0.40538456100E+02 -0.24447882811E+01  0.50528860883E+02  0.30000003141E+02 0.  0.
         12    1    1    2    0    0 -0.19550398948E+01  0.40538456100E+02  0.24447882811E+01  0.40659139117E+02  0.00000000000E+00 0. -1.
         11    1    3    3    0    0  0.86974143374E+00  0.13132709850E+00  0.30526187806E+01  0.31768189512E+01  0.51100000000E-03 0. -1.
        -11    1    3    3    0    0  0.34878062773E+01 -0.42956033949E+02 -0.70837855937E+01  0.43675687332E+02  0.51100000000E-03 0.  1.
        -12    1    3    3    0    0 -0.24025078162E+01  0.22862507506E+01  0.15863785320E+01  0.36763546005E+01  0.00000000000E+00 0.  1.
</event>
<event>
 7    1  0.5972636E-013  0.5052886E+02  0.7816164E-02  0.1300439E+00
        -11   -1    0    0    0    0  0.00000000000E+00  0.00000000000E+00  0.45593999997E+02  0.45594000000E+02  0.51100000000E-03 0.  1.
         11   -1    0    0    0    0 -0.00000000000E+00 -0.00000000000E+00 -0.45593999997E+02  0.45594000000E+02  0.51100000000E-03 0. -1.
    9900012    2    1    2    0    0  0.14265226927E+02 -0.28142589955E+02  0.25644958118E+02  0.50528856557E+02  0.29999989991E+02 0.  0.
         12    1    1    2    0    0 -0.14265226927E+02  0.28142589955E+02 -0.25644958118E+02  0.40659143443E+02  0.00000000000E+00 0. -1.
         11    1    3    3    0    0 -0.24728724702E+01 -0.31214338479E+01  0.17459870879E+02  0.17908253374E+02  0.51100000000E-03 0. -1.
        -11    1    3    3    0    0  0.23702167303E+01 -0.90763856227E+01 -0.66503613429E+00  0.94043062818E+01  0.51100000000E-03 0.  1.
         12    1    3    3    0    0  0.14367882666E+02 -0.15944770484E+02  0.88501233731E+01  0.23216296902E+02  0.00000000000E+00 0. -1.
</event>
<event>
 7    1  0.5972636E-013  0.5052886E+02  0.7816164E-02  0.1300439E+00
        -11   -1    0    0    0    0  0.00000000000E+00  0.00000000000E+00  0.45593999997E+02  0.45594000000E+02  0.51100000000E-03 0.  1.
         11   -1    0    0    0    0 -0.00000000000E+00 -0.00000000000E+00 -0.45593999997E+02  0.45594000000E+02  0.51100000000E-03 0. -1.
    9900012    2    1    2    0    0 -0.23824821934E+02  0.12094125104E+02  0.30647600176E+02  0.50528863281E+02  0.30000010429E+02 0.  0.
         12    1    1    2    0    0  0.23824821934E+02 -0.12094125104E+02 -0.30647600176E+02  0.40659136719E+02  0.00000000000E+00 0. -1.
         11    1    3    3    0    0 -0.20576264956E+02  0.10649487084E+02  0.14868596076E+02  0.27529427968E+02  0.51100000000E-03 0.  1.
        -11    1    3    3    0    0  0.48999533231E+01 -0.34572515460E+00 -0.26142582419E+00  0.49190865182E+01  0.51100000000E-03 0. -1.
         12    1    3    3    0    0 -0.81485103010E+01  0.17903631744E+01  0.16040429923E+02  0.18080348795E+02  0.00000000000E+00 0. -1.
</event>
<event>
 7    1  0.5972636E-013  0.5052887E+02  0.7816164E-02  0.1300439E+00
        -11   -1    0    0    0    0  0.00000000000E+00  0.00000000000E+00  0.45593999997E+02  0.45594000000E+02  0.51100000000E-03 0.  1.
         11   -1    0    0    0    0 -0.00000000000E+00 -0.00000000000E+00 -0.45593999997E+02  0.45594000000E+02  0.51100000000E-03 0. -1.
    9900012    2    1    2    0    0  0.15952038716E+02  0.21309228453E+01  0.37338409571E+02  0.50528865717E+02  0.30000017833E+02 0.  0.
         12    1    1    2    0    0 -0.15952038716E+02 -0.21309228453E+01 -0.37338409571E+02  0.40659134283E+02  0.00000000000E+00 0. -1.
         11    1    3    3    0    0 -0.15481293550E+01  0.57454640821E+01  0.49857241544E+01  0.77630218101E+01  0.51100000000E-03 0. -1.
        -11    1    3    3    0    0  0.80969052550E+01 -0.95948283541E+01  0.28208800552E+02  0.30876480283E+02  0.51100000000E-03 0.  1.
        -12    1    3    3    0    0  0.94032628164E+01  0.59802871173E+01  0.41438848650E+01  0.11889363624E+02  0.00000000000E+00 0.  1.
</event>
<event>
 7    1  0.5972636E-013  0.5052886E+02  0.7816164E-02  0.1300439E+00
        -11   -1    0    0    0    0  0.00000000000E+00  0.00000000000E+00  0.45593999997E+02  0.45594000000E+02  0.51100000000E-03 0. -1.
         11   -1    0    0    0    0 -0.00000000000E+00 -0.00000000000E+00 -0.45593999997E+02  0.45594000000E+02  0.51100000000E-03 0.  1.
    9900012    2    1    2    0    0 -0.18469771237E+02  0.34101481430E+02  0.12211542667E+02  0.50528864993E+02  0.30000015632E+02 0.  0.
         12    1    1    2    0    0  0.18469771237E+02 -0.34101481430E+02 -0.12211542667E+02  0.40659135007E+02  0.00000000000E+00 0. -1.
         11    1    3    3    0    0 -0.12935250801E+01  0.17671606749E+02  0.14664386566E+02  0.23000067953E+02  0.51100000000E-03 0. -1.
        -11    1    3    3    0    0 -0.64732060025E+01 -0.98043509044E+00 -0.27210197139E+01  0.70899645600E+01  0.51100000000E-03 0.  1.
        -12    1    3    3    0    0 -0.10703040154E+02  0.17410309771E+02  0.26817581472E+00  0.20438832480E+02  0.00000000000E+00 0.  1.
</event>
<event>
 7    1  0.5972636E-013  0.5052888E+02  0.7816164E-02  0.1300439E+00
        -11   -1    0    0    0    0  0.00000000000E+00  0.00000000000E+00  0.45593999997E+02  0.45594000000E+02  0.51100000000E-03 0.  1.
         11   -1    0    0    0    0 -0.00000000000E+00 -0.00000000000E+00 -0.45593999997E+02  0.45594000000E+02  0.51100000000E-03 0. -1.
    9900012    2    1    2    0    0  0.19332037849E+02  0.12814253964E+02  0.33395083234E+02  0.50528875855E+02  0.30000048648E+02 0.  0.
         12    1    1    2    0    0 -0.19332037849E+02 -0.12814253964E+02 -0.33395083234E+02  0.40659124145E+02  0.00000000000E+00 0. -1.
         11    1    3    3    0    0 -0.34097937763E+01 -0.27639232436E+01  0.70263232071E+00  0.44451836556E+01  0.51100000000E-03 0. -1.
        -11    1    3    3    0    0  0.16392817566E+02  0.85839662052E+01  0.31540084855E+02  0.36567552509E+02  0.51100000000E-03 0.  1.
         12    1    3    3    0    0  0.63490140593E+01  0.69942110027E+01  0.11523660582E+01  0.95161396904E+01  0.00000000000E+00 0. -1.
</event>
<event>
 7    1  0.5972636E-013  0.5052893E+02  0.7816164E-02  0.1300439E+00
        -11   -1    0    0    0    0  0.00000000000E+00  0.00000000000E+00  0.45593999997E+02  0.45594000000E+02  0.51100000000E-03 0.  1.
         11   -1    0    0    0    0 -0.00000000000E+00 -0.00000000000E+00 -0.45593999997E+02  0.45594000000E+02  0.51100000000E-03 0. -1.
    9900012    2    1    2    0    0 -0.15613320916E+02  0.22708782990E+02  0.29894733696E+02  0.50528933143E+02  0.30000222781E+02 0.  0.
         12    1    1    2    0    0  0.15613320916E+02 -0.22708782990E+02 -0.29894733696E+02  0.40659066857E+02  0.00000000000E+00 0. -1.
         11    1    3    3    0    0 -0.64539962458E+01  0.10022199294E+01 -0.27776883848E+01  0.70974689399E+01  0.51100000000E-03 0. -1.
        -11    1    3    3    0    0 -0.12252660187E+02  0.22087333553E+02  0.27093531888E+02  0.37041023955E+02  0.51100000000E-03 0.  1.
        -12    1    3    3    0    0  0.30933355170E+01 -0.38077049256E+00  0.55788901924E+01  0.63904402484E+01  0.00000000000E+00 0.  1.
</event>
<event>
 7    1  0.5972636E-013  0.5052886E+02  0.7816164E-02  0.1300439E+00
        -11   -1    0    0    0    0  0.00000000000E+00  0.00000000000E+00  0.45593999997E+02  0.45594000000E+02  0.51100000000E-03 0. -1.
         11   -1    0    0    0    0 -0.00000000000E+00 -0.00000000000E+00 -0.45593999997E+02  0.45594000000E+02  0.51100000000E-03 0.  1.
    9900012    2    1    2    0    0  0.43570719645E+01  0.24081076644E+02 -0.32469727280E+02  0.50528861813E+02  0.30000005968E+02 0.  0.
         12    1    1    2    0    0 -0.43570719645E+01 -0.24081076644E+02  0.32469727280E+02  0.40659138187E+02  0.00000000000E+00 0. -1.
         11    1    3    3    0    0  0.49164980100E+01  0.22876905306E+02 -0.85204068253E+01  0.24902250537E+02  0.51100000000E-03 0. -1.
        -11    1    3    3    0    0 -0.29942910041E+01  0.20665445101E+01 -0.22225167141E+02  0.22520977766E+02  0.51100000000E-03 0.  1.
        -12    1    3    3    0    0  0.24348649586E+01 -0.86237317197E+00 -0.17241533139E+01  0.31056335110E+01  0.00000000000E+00 0.  1.
</event>
<event>
 7    1  0.5972636E-013  0.5052887E+02  0.7816164E-02  0.1300439E+00
        -11   -1    0    0    0    0  0.00000000000E+00  0.00000000000E+00  0.45593999997E+02  0.45594000000E+02  0.51100000000E-03 0.  1.
         11   -1    0    0    0    0 -0.00000000000E+00 -0.00000000000E+00 -0.45593999997E+02  0.45594000000E+02  0.51100000000E-03 0. -1.
    9900012    2    1    2    0    0 -0.83758047314E+01  0.33643922548E+01  0.39644570317E+02  0.50528865777E+02  0.30000018015E+02 0.  0.
         12    1    1    2    0    0  0.83758047314E+01 -0.33643922548E+01 -0.39644570317E+02  0.40659134223E+02  0.00000000000E+00 0. -1.
         11    1    3    3    0    0 -0.13671873240E+01 -0.82075959049E+01  0.34970553317E+01  0.90256981985E+01  0.51100000000E-03 0. -1.
        -11    1    3    3    0    0 -0.34349500793E+01  0.34840735130E+01  0.30764771925E+02  0.31151385878E+02  0.51100000000E-03 0.  1.
        -12    1    3    3    0    0 -0.35736673280E+01  0.80879146466E+01  0.53827430606E+01  0.10351781700E+02  0.00000000000E+00 0.  1.
</event>
<event>
 7    1  0.5972636E-013  0.5052886E+02  0.7816164E-02  0.1300439E+00
        -11   -1    0    0    0    0  0.00000000000E+00  0.00000000000E+00  0.45593999997E+02  0.45594000000E+02  0.51100000000E-03 0.  1.
         11   -1    0    0    0    0 -0.00000000000E+00 -0.00000000000E+00 -0.45593999997E+02  0.45594000000E+02  0.51100000000E-03 0. -1.
    9900012    2    1    2    0    0 -0.23924694502E+02 -0.12403674354E+02  0.30445417034E+02  0.50528861263E+02  0.30000004294E+02 0.  0.
         12    1    1    2    0    0  0.23924694502E+02  0.12403674354E+02 -0.30445417034E+02  0.40659138737E+02  0.00000000000E+00 0. -1.
         11    1    3    3    0    0 -0.11932296091E+01 -0.46048213150E+01  0.18361981239E+02  0.18968145179E+02  0.51100000000E-03 0.  1.
        -11    1    3    3    0    0 -0.15846950866E+02 -0.55260994141E+01 -0.77337930798E+00  0.16800647080E+02  0.51100000000E-03 0. -1.
         12    1    3    3    0    0 -0.68845140267E+01 -0.22727536252E+01  0.12856815102E+02  0.14760069004E+02  0.00000000000E+00 0. -1.
</event>
<event>
 7    1  0.5972636E-013  0.5052886E+02  0.7816164E-02  0.1300439E+00
        -11   -1    0    0    0    0  0.00000000000E+00  0.00000000000E+00  0.45593999997E+02  0.45594000000E+02  0.51100000000E-03 0.  1.
         11   -1    0    0    0    0 -0.00000000000E+00 -0.00000000000E+00 -0.45593999997E+02  0.45594000000E+02  0.51100000000E-03 0. -1.
    9900012    2    1    2    0    0  0.46636928260E+01 -0.86640244648E+01  0.39450603745E+02  0.50528862201E+02  0.30000007146E+02 0.  0.
         12    1    1    2    0    0 -0.46636928260E+01  0.86640244648E+01 -0.39450603745E+02  0.40659137799E+02  0.00000000000E+00 0. -1.
         11    1    3    3    0    0 -0.16345634744E+01  0.37500389590E+01  0.29266710623E+01  0.50299099111E+01  0.51100000000E-03 0. -1.
        -11    1    3    3    0    0  0.97259736325E+01 -0.17957906378E+02  0.25236462214E+02  0.32464749959E+02  0.51100000000E-03 0.  1.
        -12    1    3    3    0    0 -0.34277173321E+01  0.55438429544E+01  0.11287470469E+02  0.13034202331E+02  0.00000000000E+00 0.  1.
</event>
<event>
 7    1  0.5972636E-013  0.5052886E+02  0.7816164E-02  0.1300439E+00
        -11   -1    0    0    0    0  0.00000000000E+00  0.00000000000E+00  0.45593999997E+02  0.45594000000E+02  0.51100000000E-03 0.  1.
         11   -1    0    0    0    0 -0.00000000000E+00 -0.00000000000E+00 -0.45593999997E+02  0.45594000000E+02  0.51100000000E-03 0. -1.
    9900012    2    1    2    0    0 -0.62236976708E+01 -0.39645578446E+02  0.65314243928E+01  0.50528858253E+02  0.29999995146E+02 0.  0.
         12    1    1    2    0    0  0.62236976708E+01  0.39645578446E+02 -0.65314243928E+01  0.40659141747E+02  0.00000000000E+00 0. -1.
         11    1    3    3    0    0  0.58865064694E+01 -0.44743216470E+01  0.85646409138E+01  0.11314750853E+02  0.51100000000E-03 0. -1.
        -11    1    3    3    0    0 -0.12551422783E+02 -0.23415558697E+02 -0.51101498035E+01  0.27054393992E+02  0.51100000000E-03 0.  1.
        -12    1    3    3    0    0  0.44121864309E+00 -0.11755698102E+02  0.30769332826E+01  0.12159713409E+02  0.00000000000E+00 0.  1.
</event>
<event>
 7    1  0.5972636E-013  0.5052887E+02  0.7816164E-02  0.1300439E+00
        -11   -1    0    0    0    0  0.00000000000E+00  0.00000000000E+00  0.45593999997E+02  0.45594000000E+02  0.51100000000E-03 0.  1.
         11   -1    0    0    0    0 -0.00000000000E+00 -0.00000000000E+00 -0.45593999997E+02  0.45594000000E+02  0.51100000000E-03 0. -1.
    9900012    2    1    2    0    0 -0.13925802342E+02 -0.58843611919E+00  0.38195429328E+02  0.50528867576E+02  0.30000023485E+02 0.  0.
         12    1    1    2    0    0  0.13925802342E+02  0.58843611919E+00 -0.38195429328E+02  0.40659132424E+02  0.00000000000E+00 0. -1.
         11    1    3    3    0    0 -0.91186394902E+01  0.24812642436E+01  0.45818563232E+00  0.94612997380E+01  0.51100000000E-03 0. -1.
        -11    1    3    3    0    0 -0.10538559294E+01  0.28715595827E+01  0.31569464048E+02  0.31717306432E+02  0.51100000000E-03 0.  1.
        -12    1    3    3    0    0 -0.37533069221E+01 -0.59412599455E+01  0.61677796470E+01  0.93502614062E+01  0.00000000000E+00 0.  1.
</event>
<event>
 7    1  0.5972636E-013  0.5052886E+02  0.7816164E-02  0.1300439E+00
        -11   -1    0    0    0    0  0.00000000000E+00  0.00000000000E+00  0.45593999997E+02  0.45594000000E+02  0.51100000000E-03 0.  1.
         11   -1    0    0    0    0 -0.00000000000E+00 -0.00000000000E+00 -0.45593999997E+02  0.45594000000E+02  0.51100000000E-03 0. -1.
    9900012    2    1    2    0    0  0.22528365667E+02  0.75245694955E+01  0.33000291156E+02  0.50528860534E+02  0.30000002080E+02 0.  0.
         12    1    1    2    0    0 -0.22528365667E+02 -0.75245694955E+01 -0.33000291156E+02  0.40659139466E+02  0.00000000000E+00 0. -1.
         11    1    3    3    0    0  0.11323198497E+02  0.43378288660E+01  0.56035467276E+01  0.13357818672E+02  0.51100000000E-03 0. -1.
        -11    1    3    3    0    0  0.86109836822E+01 -0.58264333027E+01  0.25587393497E+02  0.27619034582E+02  0.51100000000E-03 0.  1.
        -12    1    3    3    0    0  0.25941834870E+01  0.90131739322E+01  0.18093509316E+01  0.95520072807E+01  0.00000000000E+00 0.  1.
</event>
<event>
 7    1  0.5972636E-013  0.5052888E+02  0.7816164E-02  0.1300439E+00
        -11   -1    0    0    0    0  0.00000000000E+00  0.00000000000E+00  0.45593999997E+02  0.45594000000E+02  0.51100000000E-03 0. -1.
         11   -1    0    0    0    0 -0.00000000000E+00 -0.00000000000E+00 -0.45593999997E+02  0.45594000000E+02  0.51100000000E-03 0.  1.
    9900012    2    1    2    0    0 -0.24270133772E+02  0.31860712998E+02 -0.70013962159E+01  0.50528880789E+02  0.30000063646E+02 0.  0.
         12    1    1    2    0    0  0.24270133772E+02 -0.31860712998E+02  0.70013962159E+01  0.40659119211E+02  0.00000000000E+00 0. -1.
         11    1    3    3    0    0  0.55084036226E+01  0.96912852417E+01 -0.29150368265E+01  0.11522194238E+02  0.51100000000E-03 0. -1.
        -11    1    3    3    0    0 -0.30063917187E+02  0.20760387392E+02 -0.55506705195E+01  0.36954603838E+02  0.51100000000E-03 0.  1.
        -12    1    3    3    0    0  0.28537979329E+00  0.14090403642E+01  0.14643111300E+01  0.20520827127E+01  0.00000000000E+00 0.  1.
</event>
<event>
 7    1  0.5972636E-013  0.5052889E+02  0.7816164E-02  0.1300439E+00
        -11   -1    0    0    0    0  0.00000000000E+00  0.00000000000E+00  0.45593999997E+02  0.45594000000E+02  0.51100000000E-03 0. -1.
         11   -1    0    0    0    0 -0.00000000000E+00 -0.00000000000E+00 -0.45593999997E+02  0.45594000000E+02  0.51100000000E-03 0.  1.
    9900012    2    1    2    0    0  0.26118736918E+02 -0.27795277932E+02 -0.14085353226E+02  0.50528891930E+02  0.30000097511E+02 0.  0.
         12    1    1    2    0    0 -0.26118736918E+02  0.27795277932E+02  0.14085353226E+02  0.40659108070E+02  0.00000000000E+00 0. -1.
         11    1    3    3    0    0  0.13252428157E+02  0.57546019621E+00  0.11594506535E+01  0.13315492201E+02  0.51100000000E-03 0. -1.
        -11    1    3    3    0    0  0.11794455748E+02 -0.29826825437E+02 -0.13882510998E+02  0.34949575304E+02  0.51100000000E-03 0.  1.
        -12    1    3    3    0    0  0.10718530134E+01  0.14560873086E+01 -0.13622928819E+01  0.22638244253E+01  0.00000000000E+00 0.  1.
</event>
<event>
 7    1  0.5972636E-013  0.5052883E+02  0.7816164E-02  0.1300439E+00
        -11   -1    0    0    0    0  0.00000000000E+00  0.00000000000E+00  0.45593999997E+02  0.45594000000E+02  0.51100000000E-03 0. -1.
         11   -1    0    0    0    0 -0.00000000000E+00 -0.00000000000E+00 -0.45593999997E+02  0.45594000000E+02  0.51100000000E-03 0.  1.
    9900012    2    1    2    0    0  0.25136617489E+02  0.28637956791E+01 -0.31829497277E+02  0.50528834227E+02  0.29999922115E+02 0.  0.
         12    1    1    2    0    0 -0.25136617489E+02 -0.28637956791E+01  0.31829497277E+02  0.40659165773E+02  0.00000000000E+00 0. -1.
         11    1    3    3    0    0  0.14422170044E+02  0.61402958280E+01 -0.60157571224E+00  0.15686430927E+02  0.51100000000E-03 0. -1.
        -11    1    3    3    0    0  0.81754001855E+01 -0.42812690819E+01 -0.30705374111E+02  0.32062227507E+02  0.51100000000E-03 0.  1.
        -12    1    3    3    0    0  0.25390472602E+01  0.10047689329E+01 -0.52254745320E+00  0.27801757928E+01  0.00000000000E+00 0.  1.
</event>
<event>
 7    1  0.5972636E-013  0.5052886E+02  0.7816164E-02  0.1300439E+00
        -11   -1    0    0    0    0  0.00000000000E+00  0.00000000000E+00  0.45593999997E+02  0.45594000000E+02  0.51100000000E-03 0. -1.
         11   -1    0    0    0    0 -0.00000000000E+00 -0.00000000000E+00 -0.45593999997E+02  0.45594000000E+02  0.51100000000E-03 0.  1.
    9900012    2    1    2    0    0 -0.11231455362E+02 -0.45749230542E+01 -0.38808381000E+02  0.50528856547E+02  0.29999989960E+02 0.  0.
         12    1    1    2    0    0  0.11231455362E+02  0.45749230542E+01  0.38808381000E+02  0.40659143453E+02  0.00000000000E+00 0. -1.
         11    1    3    3    0    0 -0.12950833685E+02 -0.30717067424E+01 -0.39283057859E+02  0.41476717692E+02  0.51100000000E-03 0.  1.
        -11    1    3    3    0    0  0.44823472041E+01 -0.34527679390E+01  0.27210914427E+00  0.56645464555E+01  0.51100000000E-03 0. -1.
        -12    1    3    3    0    0 -0.27629688812E+01  0.19495516273E+01  0.20256771528E+00  0.33875923995E+01  0.00000000000E+00 0.  1.
</event>
<event>
 7    1  0.5972636E-013  0.5052886E+02  0.7816164E-02  0.1300439E+00
        -11   -1    0    0    0    0  0.00000000000E+00  0.00000000000E+00  0.45593999997E+02  0.45594000000E+02  0.51100000000E-03 0.  1.
         11   -1    0    0    0    0 -0.00000000000E+00 -0.00000000000E+00 -0.45593999997E+02  0.45594000000E+02  0.51100000000E-03 0. -1.
    9900012    2    1    2    0    0  0.15318268932E+01 -0.38637281131E+02  0.12568991484E+02  0.50528861621E+02  0.30000005382E+02 0.  0.
         12    1    1    2    0    0 -0.15318268932E+01  0.38637281131E+02 -0.12568991484E+02  0.40659138379E+02  0.00000000000E+00 0. -1.
         11    1    3    3    0    0 -0.11071858608E+01 -0.27725191890E+01  0.11291951505E+01  0.31918341330E+01  0.51100000000E-03 0. -1.
        -11    1    3    3    0    0  0.12032111732E+02 -0.33660985990E+02  0.59567872449E+01  0.36239715853E+02  0.51100000000E-03 0.  1.
        -12    1    3    3    0    0 -0.93930989780E+01 -0.22037759524E+01  0.54830090887E+01  0.11097311635E+02  0.00000000000E+00 0.  1.
</event>
<event>
 7    1  0.5972636E-013  0.5052886E+02  0.7816164E-02  0.1300439E+00
        -11   -1    0    0    0    0  0.00000000000E+00  0.00000000000E+00  0.45593999997E+02  0.45594000000E+02  0.51100000000E-03 0. -1.
         11   -1    0    0    0    0 -0.00000000000E+00 -0.00000000000E+00 -0.45593999997E+02  0.45594000000E+02  0.51100000000E-03 0.  1.
    9900012    2    1    2    0    0  0.40469602271E+01  0.26333682897E+02 -0.30713601458E+02  0.50528855192E+02  0.29999985843E+02 0.  0.
         12    1    1    2    0    0 -0.40469602271E+01 -0.26333682897E+02  0.30713601458E+02  0.40659144808E+02  0.00000000000E+00 0. -1.
         11    1    3    3    0    0 -0.62740268814E+01 -0.15813683445E+01 -0.13196540074E+02  0.14697374233E+02  0.51100000000E-03 0. -1.
        -11    1    3    3    0    0  0.33415238153E+00  0.13174157912E+02 -0.98143244580E+01  0.16431404667E+02  0.51100000000E-03 0.  1.
         12    1    3    3    0    0  0.99868347270E+01  0.14740893329E+02 -0.77027369256E+01  0.19400076293E+02  0.00000000000E+00 0. -1.
</event>
<event>
 7    1  0.5972636E-013  0.5052895E+02  0.7816164E-02  0.1300438E+00
        -11   -1    0    0    0    0  0.00000000000E+00  0.00000000000E+00  0.45593999997E+02  0.45594000000E+02  0.51100000000E-03 0.  1.
         11   -1    0    0    0    0 -0.00000000000E+00 -0.00000000000E+00 -0.45593999997E+02  0.45594000000E+02  0.51100000000E-03 0. -1.
    9900012    2    1    2    0    0 -0.10661634587E+01 -0.66327217821E+01  0.40100231171E+02  0.50528951281E+02  0.30000277912E+02 0.  0.
         12    1    1    2    0    0  0.10661634587E+01  0.66327217821E+01 -0.40100231171E+02  0.40659048719E+02  0.00000000000E+00 0. -1.
         11    1    3    3    0    0  0.36970617226E+01  0.10225421554E+02  0.24238444526E+02  0.26565573674E+02  0.51100000000E-03 0. -1.
        -11    1    3    3    0    0 -0.15363157452E+01 -0.11910210945E+02  0.98094325917E+01  0.15506074902E+02  0.51100000000E-03 0.  1.
         12    1    3    3    0    0 -0.32269094362E+01 -0.49479323903E+01  0.60523540536E+01  0.84573027047E+01  0.00000000000E+00 0. -1.
</event>
<event>
 7    1  0.5972636E-013  0.5052894E+02  0.7816164E-02  0.1300439E+00
        -11   -1    0    0    0    0  0.00000000000E+00  0.00000000000E+00  0.45593999997E+02  0.45594000000E+02  0.51100000000E-03 0.  1.
         11   -1    0    0    0    0 -0.00000000000E+00 -0.00000000000E+00 -0.45593999997E+02  0.45594000000E+02  0.51100000000E-03 0. -1.
    9900012    2    1    2    0    0 -0.35236381836E+02  0.20248124510E+02  0.12531045895E+01  0.50528936777E+02  0.30000233825E+02 0.  0.
         12    1    1    2    0    0  0.35236381836E+02 -0.20248124510E+02 -0.12531045895E+01  0.40659063223E+02  0.00000000000E+00 0. -1.
         11    1    3    3    0    0  0.47120328195E+01  0.15145834128E+01  0.30160986025E+01  0.57960389274E+01  0.51100000000E-03 0. -1.
        -11    1    3    3    0    0 -0.32979310226E+02  0.12725809813E+02 -0.28682964884E+01  0.35465592669E+02  0.51100000000E-03 0.  1.
         12    1    3    3    0    0 -0.69691044296E+01  0.60077312845E+01  0.11053024754E+01  0.92673051800E+01  0.00000000000E+00 0. -1.
</event>
<event>
 7    1  0.5972636E-013  0.5052888E+02  0.7816164E-02  0.1300439E+00
        -11   -1    0    0    0    0  0.00000000000E+00  0.00000000000E+00  0.45593999997E+02  0.45594000000E+02  0.51100000000E-03 0. -1.
         11   -1    0    0    0    0 -0.00000000000E+00 -0.00000000000E+00 -0.45593999997E+02  0.45594000000E+02  0.51100000000E-03 0.  1.
    9900012    2    1    2    0    0  0.14891397708E+02  0.18068905192E+02 -0.33240407538E+02  0.50528883509E+02  0.30000071913E+02 0.  0.
         12    1    1    2    0    0 -0.14891397708E+02 -0.18068905192E+02  0.33240407538E+02  0.40659116491E+02  0.00000000000E+00 0. -1.
         11    1    3    3    0    0  0.44153753479E+01  0.26704738271E+01 -0.27894321543E+01  0.58658249146E+01  0.51100000000E-03 0. -1.
        -11    1    3    3    0    0  0.92139858342E+01 -0.61526582065E+01 -0.10722095022E+02  0.15418043322E+02  0.51100000000E-03 0.  1.
        -12    1    3    3    0    0  0.12620365256E+01  0.21551089572E+02 -0.19728880362E+02  0.29245015272E+02  0.00000000000E+00 0.  1.
</event>
<event>
 7    1  0.5972636E-013  0.5052886E+02  0.7816164E-02  0.1300439E+00
        -11   -1    0    0    0    0  0.00000000000E+00  0.00000000000E+00  0.45593999997E+02  0.45594000000E+02  0.51100000000E-03 0. -1.
         11   -1    0    0    0    0 -0.00000000000E+00 -0.00000000000E+00 -0.45593999997E+02  0.45594000000E+02  0.51100000000E-03 0.  1.
    9900012    2    1    2    0    0 -0.73558872781E+01  0.36511949133E+02  0.16307490592E+02  0.50528858881E+02  0.29999997055E+02 0.  0.
         12    1    1    2    0    0  0.73558872781E+01 -0.36511949133E+02 -0.16307490592E+02  0.40659141119E+02  0.00000000000E+00 0. -1.
         11    1    3    3    0    0 -0.24503345870E+01  0.32811112740E+02  0.16360444148E+02  0.36745576492E+02  0.51100000000E-03 0. -1.
        -11    1    3    3    0    0 -0.53442148221E+01  0.63194470512E+01 -0.38678012234E+01  0.91354217014E+01  0.51100000000E-03 0.  1.
         12    1    3    3    0    0  0.43866213096E+00 -0.26186106577E+01  0.38148476673E+01  0.46478606871E+01  0.00000000000E+00 0. -1.
</event>
<event>
 7    1  0.5972636E-013  0.5052886E+02  0.7816164E-02  0.1300439E+00
        -11   -1    0    0    0    0  0.00000000000E+00  0.00000000000E+00  0.45593999997E+02  0.45594000000E+02  0.51100000000E-03 0. -1.
         11   -1    0    0    0    0 -0.00000000000E+00 -0.00000000000E+00 -0.45593999997E+02  0.45594000000E+02  0.51100000000E-03 0.  1.
    9900012    2    1    2    0    0 -0.11191463917E+02 -0.24655254931E+02 -0.30332085586E+02  0.50528857408E+02  0.29999992578E+02 0.  0.
         12    1    1    2    0    0  0.11191463917E+02  0.24655254931E+02  0.30332085586E+02  0.40659142592E+02  0.00000000000E+00 0. -1.
         11    1    3    3    0    0 -0.60835921656E+01 -0.76988209727E+01  0.49212960901E+01  0.10977299006E+02  0.51100000000E-03 0. -1.
        -11    1    3    3    0    0 -0.22125961768E+01 -0.11536322018E+02 -0.21873392718E+02  0.24827960383E+02  0.51100000000E-03 0.  1.
         12    1    3    3    0    0 -0.28952755742E+01 -0.54201119403E+01 -0.13379988958E+02  0.14723598019E+02  0.00000000000E+00 0. -1.
</event>
<event>
 7    1  0.5972636E-013  0.5052886E+02  0.7816164E-02  0.1300439E+00
        -11   -1    0    0    0    0  0.00000000000E+00  0.00000000000E+00  0.45593999997E+02  0.45594000000E+02  0.51100000000E-03 0.  1.
         11   -1    0    0    0    0 -0.00000000000E+00 -0.00000000000E+00 -0.45593999997E+02  0.45594000000E+02  0.51100000000E-03 0. -1.
    9900012    2    1    2    0    0  0.21233734368E+02  0.97342017473E+01  0.33279715242E+02  0.50528860739E+02  0.30000002701E+02 0.  0.
         12    1    1    2    0    0 -0.21233734368E+02 -0.97342017473E+01 -0.33279715242E+02  0.40659139261E+02  0.00000000000E+00 0. -1.
         11    1    3    3    0    0 -0.60502346711E+01 -0.36987031013E+01  0.41359544827E+01  0.82092547744E+01  0.51100000000E-03 0. -1.
        -11    1    3    3    0    0  0.24998283254E+02  0.13362558689E+02  0.27581683368E+02  0.39550238912E+02  0.51100000000E-03 0.  1.
        -12    1    3    3    0    0  0.22856857854E+01  0.70346159858E-01  0.15620773917E+01  0.27693670522E+01  0.00000000000E+00 0.  1.
</event>
<event>
 7    1  0.5972636E-013  0.5052886E+02  0.7816164E-02  0.1300439E+00
        -11   -1    0    0    0    0  0.00000000000E+00  0.00000000000E+00  0.45593999997E+02  0.45594000000E+02  0.51100000000E-03 0.  1.
         11   -1    0    0    0    0 -0.00000000000E+00 -0.00000000000E+00 -0.45593999997E+02  0.45594000000E+02  0.51100000000E-03 0. -1.
    9900012    2    1    2    0    0  0.19458186083E+01  0.34511285332E+02  0.21409115729E+02  0.50528864967E+02  0.30000015553E+02 0.  0.
         12    1    1    2    0    0 -0.19458186083E+01 -0.34511285332E+02 -0.21409115729E+02  0.40659135033E+02  0.00000000000E+00 0. -1.
         11    1    3    3    0    0  0.87129161065E+00  0.18689268962E+02  0.51971414935E+01  0.19417986594E+02  0.51100000000E-03 0. -1.
        -11    1    3    3    0    0 -0.53541416495E+01  0.10408539419E+02  0.18948521083E+02  0.22272201892E+02  0.51100000000E-03 0.  1.
        -12    1    3    3    0    0  0.64286686472E+01  0.54134769506E+01 -0.27365468475E+01  0.88386764800E+01  0.00000000000E+00 0.  1.
</event>
<event>
 7    1  0.5972636E-013  0.5052886E+02  0.7816164E-02  0.1300439E+00
        -11   -1    0    0    0    0  0.00000000000E+00  0.00000000000E+00  0.45593999997E+02  0.45594000000E+02  0.51100000000E-03 0. -1.
         11   -1    0    0    0    0 -0.00000000000E+00 -0.00000000000E+00 -0.45593999997E+02  0.45594000000E+02  0.51100000000E-03 0.  1.
    9900012    2    1    2    0    0 -0.52198466038E+01  0.19178614115E+02 -0.35469699845E+02  0.50528860252E+02  0.30000001223E+02 0.  0.
         12    1    1    2    0    0  0.52198466038E+01 -0.19178614115E+02  0.35469699845E+02  0.40659139748E+02  0.00000000000E+00 0. -1.
         11    1    3    3    0    0  0.33917484247E+00  0.14028270415E+01  0.13867892123E+01  0.20015363755E+01  0.51100000000E-03 0. -1.
        -11    1    3    3    0    0 -0.61843215032E+01 -0.16091720969E+01 -0.24981063954E+02  0.25785438212E+02  0.51100000000E-03 0.  1.
        -12    1    3    3    0    0  0.62530005692E+00  0.19384959170E+02 -0.11875425104E+02  0.22741885664E+02  0.00000000000E+00 0.  1.
</event>
<event>
 7    1  0.5972636E-013  0.5052886E+02  0.7816164E-02  0.1300439E+00
        -11   -1    0    0    0    0  0.00000000000E+00  0.00000000000E+00  0.45593999997E+02  0.45594000000E+02  0.51100000000E-03 0.  1.
         11   -1    0    0    0    0 -0.00000000000E+00 -0.00000000000E+00 -0.45593999997E+02  0.45594000000E+02  0.51100000000E-03 0. -1.
    9900012    2    1    2    0    0  0.15528777830E+02  0.93119929959E+01  0.36404800077E+02  0.50528860522E+02  0.30000002042E+02 0.  0.
         12    1    1    2    0    0 -0.15528777830E+02 -0.93119929959E+01 -0.36404800077E+02  0.40659139478E+02  0.00000000000E+00 0. -1.
         11    1    3    3    0    0  0.10630022543E+02  0.67111492537E+01  0.78226871761E+01  0.14806462727E+02  0.51100000000E-03 0. -1.
        -11    1    3    3    0    0 -0.54150209083E+01  0.56238817952E+01  0.21442197646E+02  0.22819253670E+02  0.51100000000E-03 0.  1.
        -12    1    3    3    0    0  0.10313776195E+02 -0.30230380531E+01  0.71399152551E+01  0.12903144126E+02  0.00000000000E+00 0.  1.
</event>
<event>
 7    1  0.5972636E-013  0.5052886E+02  0.7816164E-02  0.1300439E+00
        -11   -1    0    0    0    0  0.00000000000E+00  0.00000000000E+00  0.45593999997E+02  0.45594000000E+02  0.51100000000E-03 0.  1.
         11   -1    0    0    0    0 -0.00000000000E+00 -0.00000000000E+00 -0.45593999997E+02  0.45594000000E+02  0.51100000000E-03 0. -1.
    9900012    2    1    2    0    0  0.31608488327E+02  0.14183559824E+02  0.21281350323E+02  0.50528858651E+02  0.29999996357E+02 0.  0.
         12    1    1    2    0    0 -0.31608488327E+02 -0.14183559824E+02 -0.21281350323E+02  0.40659141349E+02  0.00000000000E+00 0. -1.
         11    1    3    3    0    0  0.34122513673E+00  0.69016195794E+01 -0.20161404702E+01  0.71981671327E+01  0.51100000000E-03 0. -1.
        -11    1    3    3    0    0  0.97626377147E+01 -0.38679676660E+01  0.13732418917E+02  0.17287266950E+02  0.51100000000E-03 0.  1.
        -12    1    3    3    0    0  0.21504625476E+02  0.11149907911E+02  0.95650718765E+01  0.26043424569E+02  0.00000000000E+00 0.  1.
</event>
<event>
 7    1  0.5972636E-013  0.5052886E+02  0.7816164E-02  0.1300439E+00
        -11   -1    0    0    0    0  0.00000000000E+00  0.00000000000E+00  0.45593999997E+02  0.45594000000E+02  0.51100000000E-03 0. -1.
         11   -1    0    0    0    0 -0.00000000000E+00 -0.00000000000E+00 -0.45593999997E+02  0.45594000000E+02  0.51100000000E-03 0.  1.
    9900012    2    1    2    0    0  0.40299190383E+02 -0.39466149318E+01  0.36831360235E+01  0.50528855814E+02  0.29999987732E+02 0.  0.
         12    1    1    2    0    0 -0.40299190383E+02  0.39466149318E+01 -0.36831360235E+01  0.40659144186E+02  0.00000000000E+00 0. -1.
         11    1    3    3    0    0 -0.29732115479E+01  0.14357847216E+00  0.33113324536E+01  0.44525862783E+01  0.51100000000E-03 0. -1.
        -11    1    3    3    0    0  0.26571515870E+02 -0.99351105656E+01  0.75052057166E+00  0.28378075322E+02  0.51100000000E-03 0.  1.
         12    1    3    3    0    0  0.16700886062E+02  0.58449171617E+01 -0.37871700174E+00  0.17698194214E+02  0.00000000000E+00 0. -1.
</event>
<event>
 7    1  0.5972636E-013  0.5052887E+02  0.7816164E-02  0.1300439E+00
        -11   -1    0    0    0    0  0.00000000000E+00  0.00000000000E+00  0.45593999997E+02  0.45594000000E+02  0.51100000000E-03 0.  1.
         11   -1    0    0    0    0 -0.00000000000E+00 -0.00000000000E+00 -0.45593999997E+02  0.45594000000E+02  0.51100000000E-03 0. -1.
    9900012    2    1    2    0    0  0.25736234065E+02 -0.11258933870E+02  0.29394690247E+02  0.50528866334E+02  0.30000019710E+02 0.  0.
         12    1    1    2    0    0 -0.25736234065E+02  0.11258933870E+02 -0.29394690247E+02  0.40659133666E+02  0.00000000000E+00 0. -1.
         11    1    3    3    0    0 -0.36165862837E+01 -0.89154978002E+01  0.83807545601E+01  0.12759421798E+02  0.51100000000E-03 0. -1.
        -11    1    3    3    0    0  0.10979362771E+02 -0.57608956277E+01  0.10957493033E+02  0.16546932620E+02  0.51100000000E-03 0.  1.
         12    1    3    3    0    0  0.18373457578E+02  0.34174595577E+01  0.10056442654E+02  0.21222511916E+02  0.00000000000E+00 0. -1.
</event>
<event>
 7    1  0.5972636E-013  0.5052886E+02  0.7816164E-02  0.1300439E+00
        -11   -1    0    0    0    0  0.00000000000E+00  0.00000000000E+00  0.45593999997E+02  0.45594000000E+02  0.51100000000E-03 0. -1.
         11   -1    0    0    0    0 -0.00000000000E+00 -0.00000000000E+00 -0.45593999997E+02  0.45594000000E+02  0.51100000000E-03 0.  1.
    9900012    2    1    2    0    0 -0.28434720581E+02  0.16005915237E+02  0.24257850837E+02  0.50528856079E+02  0.29999988539E+02 0.  0.
         12    1    1    2    0    0  0.28434720581E+02 -0.16005915237E+02 -0.24257850837E+02  0.40659143921E+02  0.00000000000E+00 0. -1.
         11    1    3    3    0    0 -0.77394705977E+00  0.12701954341E+00  0.91861949787E+01  0.92196153099E+01  0.51100000000E-03 0. -1.
        -11    1    3    3    0    0 -0.25861296526E+02  0.20424973247E+02  0.15468033951E+02  0.36403931995E+02  0.51100000000E-03 0.  1.
        -12    1    3    3    0    0 -0.17994769951E+01 -0.45460775532E+01 -0.39637809219E+00  0.49053087740E+01  0.00000000000E+00 0.  1.
</event>
<event>
 7    1  0.5972636E-013  0.5052886E+02  0.7816164E-02  0.1300439E+00
        -11   -1    0    0    0    0  0.00000000000E+00  0.00000000000E+00  0.45593999997E+02  0.45594000000E+02  0.51100000000E-03 0.  1.
         11   -1    0    0    0    0 -0.00000000000E+00 -0.00000000000E+00 -0.45593999997E+02  0.45594000000E+02  0.51100000000E-03 0. -1.
    9900012    2    1    2    0    0 -0.39434037806E+02  0.44262458754E+01  0.88617331711E+01  0.50528864433E+02  0.30000013931E+02 0.  0.
         12    1    1    2    0    0  0.39434037806E+02 -0.44262458754E+01 -0.88617331711E+01  0.40659135567E+02  0.00000000000E+00 0. -1.
         11    1    3    3    0    0 -0.10627849053E+02 -0.87735908460E-01 -0.59742933685E+01  0.12192253877E+02  0.51100000000E-03 0. -1.
        -11    1    3    3    0    0 -0.17787198243E+02  0.12482623010E+02  0.97649336045E+01  0.23823396632E+02  0.51100000000E-03 0.  1.
        -12    1    3    3    0    0 -0.11018990510E+02 -0.79686412260E+01  0.50710929351E+01  0.14513213924E+02  0.00000000000E+00 0.  1.
</event>
<event>
 7    1  0.5972636E-013  0.5052883E+02  0.7816164E-02  0.1300439E+00
        -11   -1    0    0    0    0  0.00000000000E+00  0.00000000000E+00  0.45593999997E+02  0.45594000000E+02  0.51100000000E-03 0.  1.
         11   -1    0    0    0    0 -0.00000000000E+00 -0.00000000000E+00 -0.45593999997E+02  0.45594000000E+02  0.51100000000E-03 0. -1.
    9900012    2    1    2    0    0 -0.24507906392E+02  0.13509924321E+02  0.29495973225E+02  0.50528831694E+02  0.29999914416E+02 0.  0.
         12    1    1    2    0    0  0.24507906392E+02 -0.13509924321E+02 -0.29495973225E+02  0.40659168306E+02  0.00000000000E+00 0. -1.
         11    1    3    3    0    0 -0.10538161846E+02  0.20358353638E+02  0.15230437134E+02  0.27522384226E+02  0.51100000000E-03 0. -1.
        -11    1    3    3    0    0 -0.33617061623E+01  0.21887551668E+01  0.22101301297E+01  0.45799992307E+01  0.51100000000E-03 0.  1.
         12    1    3    3    0    0 -0.10608038384E+02 -0.90371844834E+01  0.12055405961E+02  0.18426448237E+02  0.00000000000E+00 0. -1.
</event>
<event>
 7    1  0.5972636E-013  0.5052886E+02  0.7816164E-02  0.1300439E+00
        -11   -1    0    0    0    0  0.00000000000E+00  0.00000000000E+00  0.45593999997E+02  0.45594000000E+02  0.51100000000E-03 0.  1.
         11   -1    0    0    0    0 -0.00000000000E+00 -0.00000000000E+00 -0.45593999997E+02  0.45594000000E+02  0.51100000000E-03 0. -1.
    9900012    2    1    2    0    0 -0.88124179368E+01  0.31901630691E+02  0.23617636330E+02  0.50528862079E+02  0.30000006775E+02 0.  0.
         12    1    1    2    0    0  0.88124179368E+01 -0.31901630691E+02 -0.23617636330E+02  0.40659137921E+02  0.00000000000E+00 0. -1.
         11    1    3    3    0    0 -0.96569157530E+01  0.35065144714E+01  0.10218614107E+02  0.14490401655E+02  0.51100000000E-03 0. -1.
        -11    1    3    3    0    0 -0.58021269146E+01  0.25480504791E+02  0.95475427005E+01  0.27822228039E+02  0.51100000000E-03 0.  1.
        -12    1    3    3    0    0  0.66466247308E+01  0.29146114286E+01  0.38514795232E+01  0.82162323853E+01  0.00000000000E+00 0.  1.
</event>
<event>
 7    1  0.5972636E-013  0.5052887E+02  0.7816164E-02  0.1300439E+00
        -11   -1    0    0    0    0  0.00000000000E+00  0.00000000000E+00  0.45593999997E+02  0.45594000000E+02  0.51100000000E-03 0.  1.
         11   -1    0    0    0    0 -0.00000000000E+00 -0.00000000000E+00 -0.45593999997E+02  0.45594000000E+02  0.51100000000E-03 0. -1.
    9900012    2    1    2    0    0  0.30811484025E+02  0.34487448344E+01  0.26304441730E+02  0.50528867650E+02  0.30000023709E+02 0.  0.
         12    1    1    2    0    0 -0.30811484025E+02 -0.34487448344E+01 -0.26304441730E+02  0.40659132350E+02  0.00000000000E+00 0. -1.
         11    1    3    3    0    0  0.51963432096E+01 -0.10859213639E+02  0.59756790151E+01  0.13439986740E+02  0.51100000000E-03 0. -1.
        -11    1    3    3    0    0  0.17568246365E+02  0.59388192935E+01  0.81311992650E+01  0.20249179161E+02  0.51100000000E-03 0.  1.
         12    1    3    3    0    0  0.80468944506E+01  0.83691391797E+01  0.12197563450E+02  0.16839701750E+02  0.00000000000E+00 0. -1.
</event>
<event>
 7    1  0.5972636E-013  0.5052886E+02  0.7816164E-02  0.1300439E+00
        -11   -1    0    0    0    0  0.00000000000E+00  0.00000000000E+00  0.45593999997E+02  0.45594000000E+02  0.51100000000E-03 0. -1.
         11   -1    0    0    0    0 -0.00000000000E+00 -0.00000000000E+00 -0.45593999997E+02  0.45594000000E+02  0.51100000000E-03 0.  1.
    9900012    2    1    2    0    0 -0.28471030753E+02  0.33942584231E+01 -0.28827852633E+02  0.50528859947E+02  0.30000000296E+02 0.  0.
         12    1    1    2    0    0  0.28471030753E+02 -0.33942584231E+01  0.28827852633E+02  0.40659140053E+02  0.00000000000E+00 0. -1.
         11    1    3    3    0    0 -0.53379508963E+01 -0.30675547700E+00 -0.11571090018E+01  0.54705319849E+01  0.51100000000E-03 0. -1.
        -11    1    3    3    0    0 -0.24713631241E+02  0.76966401667E+01 -0.30431530811E+02  0.39950968783E+02  0.51100000000E-03 0.  1.
        -12    1    3    3    0    0  0.15805513834E+01 -0.39956262666E+01  0.27607871796E+01  0.51073591796E+01  0.00000000000E+00 0.  1.
</event>
<event>
 7    1  0.5972636E-013  0.5052886E+02  0.7816164E-02  0.1300439E+00
        -11   -1    0    0    0    0  0.00000000000E+00  0.00000000000E+00  0.45593999997E+02  0.45594000000E+02  0.51100000000E-03 0. -1.
         11   -1    0    0    0    0 -0.00000000000E+00 -0.00000000000E+00 -0.45593999997E+02  0.45594000000E+02  0.51100000000E-03 0.  1.
    9900012    2    1    2    0    0  0.21744749884E+02 -0.55887606194E+01 -0.33898331476E+02  0.50528864869E+02  0.30000015255E+02 0.  0.
         12    1    1    2    0    0 -0.21744749884E+02  0.55887606194E+01  0.33898331476E+02  0.40659135131E+02  0.00000000000E+00 0. -1.
         11    1    3    3    0    0 -0.63262402578E+01 -0.36968784018E+01 -0.40130909838E+01  0.83542279849E+01  0.51100000000E-03 0. -1.
        -11    1    3    3    0    0  0.25893409345E+02 -0.39701734838E+01 -0.23833667428E+02  0.35415739839E+02  0.51100000000E-03 0.  1.
        -12    1    3    3    0    0  0.21775807969E+01  0.20782912662E+01 -0.60515730638E+01  0.67588970447E+01  0.00000000000E+00 0.  1.
</event>
<event>
 7    1  0.5972636E-013  0.5052886E+02  0.7816164E-02  0.1300439E+00
        -11   -1    0    0    0    0  0.00000000000E+00  0.00000000000E+00  0.45593999997E+02  0.45594000000E+02  0.51100000000E-03 0.  1.
         11   -1    0    0    0    0 -0.00000000000E+00 -0.00000000000E+00 -0.45593999997E+02  0.45594000000E+02  0.51100000000E-03 0. -1.
    9900012    2    1    2    0    0  0.42287021791E+01 -0.39636210980E+02  0.80158772702E+01  0.50528862879E+02  0.30000009207E+02 0.  0.
         12    1    1    2    0    0 -0.42287021791E+01  0.39636210980E+02 -0.80158772702E+01  0.40659137121E+02  0.00000000000E+00 0. -1.
         11    1    3    3    0    0 -0.97730225372E+01 -0.22868659642E+02  0.75932510085E+01  0.26002788783E+02  0.51100000000E-03 0. -1.
        -11    1    3    3    0    0  0.10842455483E+02 -0.48034626076E+01  0.20849717706E+01  0.12040730936E+02  0.51100000000E-03 0.  1.
        -12    1    3    3    0    0  0.31592692332E+01 -0.11964088730E+02 -0.16623455090E+01  0.12485343160E+02  0.00000000000E+00 0.  1.
</event>
<event>
 7    1  0.5972636E-013  0.5052886E+02  0.7816164E-02  0.1300439E+00
        -11   -1    0    0    0    0  0.00000000000E+00  0.00000000000E+00  0.45593999997E+02  0.45594000000E+02  0.51100000000E-03 0.  1.
         11   -1    0    0    0    0 -0.00000000000E+00 -0.00000000000E+00 -0.45593999997E+02  0.45594000000E+02  0.51100000000E-03 0. -1.
    9900012    2    1    2    0    0 -0.28565079741E+02  0.28387967099E+02  0.55969064419E+01  0.50528858121E+02  0.29999994744E+02 0.  0.
         12    1    1    2    0    0  0.28565079741E+02 -0.28387967099E+02 -0.55969064419E+01  0.40659141879E+02  0.00000000000E+00 0. -1.
         11    1    3    3    0    0  0.89193213332E-01  0.18878833918E+00 -0.49910869633E+00  0.54102330652E+00  0.51100000000E-03 0. -1.
        -11    1    3    3    0    0 -0.10006949924E+02 -0.34402654900E+01 -0.48859391174E+01  0.11655336750E+02  0.51100000000E-03 0.  1.
        -12    1    3    3    0    0 -0.18647323030E+02  0.31639444249E+02  0.10981954256E+02  0.38332498065E+02  0.00000000000E+00 0.  1.
</event>
<event>
 7    1  0.5972636E-013  0.5052885E+02  0.7816164E-02  0.1300439E+00
        -11   -1    0    0    0    0  0.00000000000E+00  0.00000000000E+00  0.45593999997E+02  0.45594000000E+02  0.51100000000E-03 0.  1.
         11   -1    0    0    0    0 -0.00000000000E+00 -0.00000000000E+00 -0.45593999997E+02  0.45594000000E+02  0.51100000000E-03 0. -1.
    9900012    2    1    2    0    0 -0.10215121613E+02  0.22522803613E+02  0.32272910839E+02  0.50528853843E+02  0.29999981742E+02 0.  0.
         12    1    1    2    0    0  0.10215121613E+02 -0.22522803613E+02 -0.32272910839E+02  0.40659146157E+02  0.00000000000E+00 0. -1.
         11    1    3    3    0    0 -0.65888343871E+01  0.14681126545E+01  0.22461612221E+02  0.23454042662E+02  0.51100000000E-03 0. -1.
        -11    1    3    3    0    0 -0.19623399630E+01  0.17119575746E+02  0.13130726103E+02  0.21664409064E+02  0.51100000000E-03 0.  1.
        -12    1    3    3    0    0 -0.16639472631E+01  0.39351152131E+01 -0.33194274856E+01  0.54104021169E+01  0.00000000000E+00 0.  1.
</event>
<event>
 7    1  0.5972636E-013  0.5052886E+02  0.7816164E-02  0.1300439E+00
        -11   -1    0    0    0    0  0.00000000000E+00  0.00000000000E+00  0.45593999997E+02  0.45594000000E+02  0.51100000000E-03 0.  1.
         11   -1    0    0    0    0 -0.00000000000E+00 -0.00000000000E+00 -0.45593999997E+02  0.45594000000E+02  0.51100000000E-03 0. -1.
    9900012    2    1    2    0    0 -0.18015603151E+02 -0.38137738913E+01  0.36249947452E+02  0.50528861808E+02  0.30000005952E+02 0.  0.
         12    1    1    2    0    0  0.18015603151E+02  0.38137738913E+01 -0.36249947452E+02  0.40659138192E+02  0.00000000000E+00 0. -1.
         11    1    3    3    0    0 -0.73322235809E+01  0.22564974951E+01  0.48304877038E+01  0.90656988315E+01  0.51100000000E-03 0. -1.
        -11    1    3    3    0    0  0.26462021541E+01 -0.11456344876E+02  0.89027583039E+01  0.14748197498E+02  0.51100000000E-03 0.  1.
        -12    1    3    3    0    0 -0.13329581724E+02  0.53860734898E+01  0.22516701445E+02  0.26714965479E+02  0.00000000000E+00 0.  1.
</event>
<event>
 7    1  0.5972636E-013  0.5052886E+02  0.7816164E-02  0.1300439E+00
        -11   -1    0    0    0    0  0.00000000000E+00  0.00000000000E+00  0.45593999997E+02  0.45594000000E+02  0.51100000000E-03 0.  1.
         11   -1    0    0    0    0 -0.00000000000E+00 -0.00000000000E+00 -0.45593999997E+02  0.45594000000E+02  0.51100000000E-03 0. -1.
    9900012    2    1    2    0    0  0.38640060957E+02 -0.10717112815E+02 -0.67271748606E+01  0.50528859583E+02  0.29999999188E+02 0.  0.
         12    1    1    2    0    0 -0.38640060957E+02  0.10717112815E+02  0.67271748606E+01  0.40659140417E+02  0.00000000000E+00 0. -1.
         11    1    3    3    0    0  0.20325566569E+01 -0.90584927891E+01 -0.74616093476E+01  0.11910633589E+02  0.51100000000E-03 0. -1.
        -11    1    3    3    0    0  0.24412400882E+02  0.74974625736E+00  0.59492714800E+01  0.25138044230E+02  0.51100000000E-03 0.  1.
        -12    1    3    3    0    0  0.12195103418E+02 -0.24083662833E+01 -0.52148369931E+01  0.13480181764E+02  0.00000000000E+00 0.  1.
</event>
<event>
 7    1  0.5972636E-013  0.5052885E+02  0.7816164E-02  0.1300439E+00
        -11   -1    0    0    0    0  0.00000000000E+00  0.00000000000E+00  0.45593999997E+02  0.45594000000E+02  0.51100000000E-03 0. -1.
         11   -1    0    0    0    0 -0.00000000000E+00 -0.00000000000E+00 -0.45593999997E+02  0.45594000000E+02  0.51100000000E-03 0.  1.
    9900012    2    1    2    0    0  0.38475046221E+02 -0.78001890607E+01 -0.10582736867E+02  0.50528850345E+02  0.29999971107E+02 0.  0.
         12    1    1    2    0    0 -0.38475046221E+02  0.78001890607E+01  0.10582736867E+02  0.40659149655E+02  0.00000000000E+00 0. -1.
         11    1    3    3    0    0  0.60250454553E+01 -0.97930208141E+01  0.49218058684E+01  0.12507142066E+02  0.51100000000E-03 0. -1.
        -11    1    3    3    0    0  0.32991395334E+02  0.59341448562E+00 -0.15638933475E+02  0.36515209808E+02  0.51100000000E-03 0.  1.
        -12    1    3    3    0    0 -0.54139456863E+00  0.13994172677E+01  0.13439073893E+00  0.15064984696E+01  0.00000000000E+00 0.  1.
</event>
<event>
 7    1  0.5972636E-013  0.5052886E+02  0.7816164E-02  0.1300439E+00
        -11   -1    0    0    0    0  0.00000000000E+00  0.00000000000E+00  0.45593999997E+02  0.45594000000E+02  0.51100000000E-03 0. -1.
         11   -1    0    0    0    0 -0.00000000000E+00 -0.00000000000E+00 -0.45593999997E+02  0.45594000000E+02  0.51100000000E-03 0.  1.
    9900012    2    1    2    0    0 -0.10502488433E+02  0.37744776990E+02 -0.10871751595E+02  0.50528862822E+02  0.30000009034E+02 0.  0.
         12    1    1    2    0    0  0.10502488433E+02 -0.37744776990E+02  0.10871751595E+02  0.40659137178E+02  0.00000000000E+00 0. -1.
         11    1    3    3    0    0 -0.14266987739E+02  0.35683490616E+02 -0.84312782276E+01  0.39343930847E+02  0.51100000000E-03 0. -1.
        -11    1    3    3    0    0  0.30062598262E+01 -0.10613562798E+01 -0.57483327803E+01  0.65732340069E+01  0.51100000000E-03 0.  1.
         12    1    3    3    0    0  0.75823947905E+00  0.31226426541E+01  0.33078594133E+01  0.46116979683E+01  0.00000000000E+00 0. -1.
</event>
<event>
 7    1  0.5972636E-013  0.5052886E+02  0.7816164E-02  0.1300439E+00
        -11   -1    0    0    0    0  0.00000000000E+00  0.00000000000E+00  0.45593999997E+02  0.45594000000E+02  0.51100000000E-03 0.  1.
         11   -1    0    0    0    0 -0.00000000000E+00 -0.00000000000E+00 -0.45593999997E+02  0.45594000000E+02  0.51100000000E-03 0. -1.
    9900012    2    1    2    0    0  0.10236793428E+02 -0.37468515323E+02  0.12020146926E+02  0.50528861885E+02  0.30000006184E+02 0.  0.
         12    1    1    2    0    0 -0.10236793428E+02  0.37468515323E+02 -0.12020146926E+02  0.40659138115E+02  0.00000000000E+00 0. -1.
         11    1    3    3    0    0  0.56874069749E+01 -0.84105852685E+01 -0.60243993945E+01  0.11805843087E+02  0.51100000000E-03 0. -1.
        -11    1    3    3    0    0 -0.59664910855E+01 -0.12440558265E+02  0.34171009980E+01  0.14214186059E+02  0.51100000000E-03 0.  1.
         12    1    3    3    0    0  0.10515877538E+02 -0.16617371789E+02  0.14627445323E+02  0.24508832740E+02  0.00000000000E+00 0. -1.
</event>
<event>
 7    1  0.5972636E-013  0.5052887E+02  0.7816164E-02  0.1300439E+00
        -11   -1    0    0    0    0  0.00000000000E+00  0.00000000000E+00  0.45593999997E+02  0.45594000000E+02  0.51100000000E-03 0.  1.
         11   -1    0    0    0    0 -0.00000000000E+00 -0.00000000000E+00 -0.45593999997E+02  0.45594000000E+02  0.51100000000E-03 0. -1.
    9900012    2    1    2    0    0  0.99259549178E+01 -0.31253617440E+02  0.24038545750E+02  0.50528869833E+02  0.30000030346E+02 0.  0.
         12    1    1    2    0    0 -0.99259549178E+01  0.31253617440E+02 -0.24038545750E+02  0.40659130167E+02  0.00000000000E+00 0. -1.
         11    1    3    3    0    0  0.13311544354E+02 -0.12676335261E+02  0.92863741412E+01  0.20594257299E+02  0.51100000000E-03 0.  1.
        -11    1    3    3    0    0 -0.45725216168E+01 -0.19433660856E+01  0.12058915515E+02  0.13042318404E+02  0.51100000000E-03 0. -1.
         12    1    3    3    0    0  0.11869321807E+01 -0.16633916094E+02  0.26932560932E+01  0.16892294131E+02  0.00000000000E+00 0. -1.
</event>
<event>
 7    1  0.5972636E-013  0.5052893E+02  0.7816164E-02  0.1300439E+00
        -11   -1    0    0    0    0  0.00000000000E+00  0.00000000000E+00  0.45593999997E+02  0.45594000000E+02  0.51100000000E-03 0. -1.
         11   -1    0    0    0    0 -0.00000000000E+00 -0.00000000000E+00 -0.45593999997E+02  0.45594000000E+02  0.51100000000E-03 0.  1.
    9900012    2    1    2    0    0 -0.31391343297E+02 -0.24968530798E+02 -0.66570305758E+01  0.50528929422E+02  0.30000211469E+02 0.  0.
         12    1    1    2    0    0  0.31391343297E+02  0.24968530798E+02  0.66570305758E+01  0.40659070578E+02  0.00000000000E+00 0. -1.
         11    1    3    3    0    0 -0.57298841045E+01  0.10734106067E+01 -0.10861145730E+02  0.12326729859E+02  0.51100000000E-03 0. -1.
        -11    1    3    3    0    0 -0.24233401897E+02 -0.21071521300E+02  0.10209676506E+01  0.32129568198E+02  0.51100000000E-03 0.  1.
         12    1    3    3    0    0 -0.14280572959E+01 -0.49704201048E+01  0.31831475038E+01  0.60726313645E+01  0.00000000000E+00 0. -1.
</event>
<event>
 7    1  0.5972636E-013  0.5052887E+02  0.7816164E-02  0.1300439E+00
        -11   -1    0    0    0    0  0.00000000000E+00  0.00000000000E+00  0.45593999997E+02  0.45594000000E+02  0.51100000000E-03 0. -1.
         11   -1    0    0    0    0 -0.00000000000E+00 -0.00000000000E+00 -0.45593999997E+02  0.45594000000E+02  0.51100000000E-03 0.  1.
    9900012    2    1    2    0    0  0.17168911587E+02 -0.60762684902E+01 -0.36352063794E+02  0.50528866881E+02  0.30000021373E+02 0.  0.
         12    1    1    2    0    0 -0.17168911587E+02  0.60762684902E+01  0.36352063794E+02  0.40659133119E+02  0.00000000000E+00 0. -1.
         11    1    3    3    0    0  0.15151295819E+02 -0.54231627678E+01 -0.36216532116E+01  0.16495115388E+02  0.51100000000E-03 0. -1.
        -11    1    3    3    0    0  0.14754243203E+01 -0.43382940276E+00 -0.33229393544E+02  0.33264961753E+02  0.51100000000E-03 0.  1.
        -12    1    3    3    0    0  0.54219144733E+00 -0.21927631959E+00  0.49898296112E+00  0.76878974068E+00  0.00000000000E+00 0.  1.
</event>
<event>
 7    1  0.5972636E-013  0.5052887E+02  0.7816164E-02  0.1300439E+00
        -11   -1    0    0    0    0  0.00000000000E+00  0.00000000000E+00  0.45593999997E+02  0.45594000000E+02  0.51100000000E-03 0.  1.
         11   -1    0    0    0    0 -0.00000000000E+00 -0.00000000000E+00 -0.45593999997E+02  0.45594000000E+02  0.51100000000E-03 0. -1.
    9900012    2    1    2    0    0  0.34549048207E+02  0.13661305426E+02  0.16519592347E+02  0.50528869054E+02  0.30000027977E+02 0.  0.
         12    1    1    2    0    0 -0.34549048207E+02 -0.13661305426E+02 -0.16519592347E+02  0.40659130946E+02  0.00000000000E+00 0. -1.
         11    1    3    3    0    0  0.99421379892E+01  0.65715354262E+01  0.54568719464E+00  0.11930170176E+02  0.51100000000E-03 0. -1.
        -11    1    3    3    0    0  0.21596274235E+02  0.74615409578E+00  0.20867349489E+02  0.30040008018E+02  0.51100000000E-03 0.  1.
        -12    1    3    3    0    0  0.30106359832E+01  0.63436159039E+01 -0.48934443370E+01  0.85586908601E+01  0.00000000000E+00 0.  1.
</event>
<event>
 7    1  0.5972636E-013  0.5052885E+02  0.7816164E-02  0.1300439E+00
        -11   -1    0    0    0    0  0.00000000000E+00  0.00000000000E+00  0.45593999997E+02  0.45594000000E+02  0.51100000000E-03 0. -1.
         11   -1    0    0    0    0 -0.00000000000E+00 -0.00000000000E+00 -0.45593999997E+02  0.45594000000E+02  0.51100000000E-03 0.  1.
    9900012    2    1    2    0    0  0.36315165518E+02 -0.12789555599E+02 -0.13069135981E+02  0.50528852267E+02  0.29999976952E+02 0.  0.
         12    1    1    2    0    0 -0.36315165518E+02  0.12789555599E+02  0.13069135981E+02  0.40659147733E+02  0.00000000000E+00 0. -1.
         11    1    3    3    0    0  0.18308991935E+02 -0.17722718992E+02  0.60427339079E+00  0.25488803439E+02  0.51100000000E-03 0. -1.
        -11    1    3    3    0    0  0.62387067826E+01 -0.28533756166E+01 -0.47672049377E+01  0.83540084934E+01  0.51100000000E-03 0.  1.
         12    1    3    3    0    0  0.11767466801E+02  0.77865390094E+01 -0.89062044340E+01  0.16686040335E+02  0.00000000000E+00 0. -1.
</event>
<event>
 7    1  0.5972636E-013  0.5052886E+02  0.7816164E-02  0.1300439E+00
        -11   -1    0    0    0    0  0.00000000000E+00  0.00000000000E+00  0.45593999997E+02  0.45594000000E+02  0.51100000000E-03 0.  1.
         11   -1    0    0    0    0 -0.00000000000E+00 -0.00000000000E+00 -0.45593999997E+02  0.45594000000E+02  0.51100000000E-03 0. -1.
    9900012    2    1    2    0    0  0.96983823599E+00 -0.15971721488E+02  0.37378192557E+02  0.50528858933E+02  0.29999997213E+02 0.  0.
         12    1    1    2    0    0 -0.96983823599E+00  0.15971721488E+02 -0.37378192557E+02  0.40659141067E+02  0.00000000000E+00 0. -1.
         11    1    3    3    0    0 -0.48610838065E+01  0.52068153068E+01  0.14650178887E+02  0.16290144355E+02  0.51100000000E-03 0. -1.
        -11    1    3    3    0    0  0.91395666377E+00 -0.19291153301E+02  0.21361573286E+02  0.28797581947E+02  0.51100000000E-03 0.  1.
         12    1    3    3    0    0  0.49169653788E+01 -0.18873834930E+01  0.13664403836E+01  0.54411326310E+01  0.00000000000E+00 0. -1.
</event>
<event>
 7    1  0.5972636E-013  0.5052886E+02  0.7816164E-02  0.1300439E+00
        -11   -1    0    0    0    0  0.00000000000E+00  0.00000000000E+00  0.45593999997E+02  0.45594000000E+02  0.51100000000E-03 0.  1.
         11   -1    0    0    0    0 -0.00000000000E+00 -0.00000000000E+00 -0.45593999997E+02  0.45594000000E+02  0.51100000000E-03 0. -1.
    9900012    2    1    2    0    0  0.42588132362E+01 -0.36084051348E+02  0.18247440400E+02  0.50528864089E+02  0.30000012885E+02 0.  0.
         12    1    1    2    0    0 -0.42588132362E+01  0.36084051348E+02 -0.18247440400E+02  0.40659135911E+02  0.00000000000E+00 0. -1.
         11    1    3    3    0    0 -0.22446739440E+01 -0.30024769375E+02  0.24609262144E+01  0.30208963823E+02  0.51100000000E-03 0. -1.
        -11    1    3    3    0    0  0.22607729987E+01 -0.78633588823E+01  0.99389662483E+01  0.12873482738E+02  0.51100000000E-03 0.  1.
         12    1    3    3    0    0  0.42427141815E+01  0.18040769095E+01  0.58475479372E+01  0.74464175278E+01  0.00000000000E+00 0. -1.
</event>
<event>
 7    1  0.5972636E-013  0.5052886E+02  0.7816164E-02  0.1300439E+00
        -11   -1    0    0    0    0  0.00000000000E+00  0.00000000000E+00  0.45593999997E+02  0.45594000000E+02  0.51100000000E-03 0.  1.
         11   -1    0    0    0    0 -0.00000000000E+00 -0.00000000000E+00 -0.45593999997E+02  0.45594000000E+02  0.51100000000E-03 0. -1.
    9900012    2    1    2    0    0 -0.18690718534E+02 -0.20049500419E+01  0.36052780221E+02  0.50528859015E+02  0.29999997461E+02 0.  0.
         12    1    1    2    0    0  0.18690718534E+02  0.20049500419E+01 -0.36052780221E+02  0.40659140985E+02  0.00000000000E+00 0. -1.
         11    1    3    3    0    0 -0.21152160368E+02 -0.14411518405E+01  0.30323035001E+02  0.36999692685E+02  0.51100000000E-03 0. -1.
        -11    1    3    3    0    0  0.27591463801E+01  0.41506617929E+01 -0.12150788199E+01  0.51300388757E+01  0.51100000000E-03 0.  1.
         12    1    3    3    0    0 -0.29770454597E+00 -0.47144599944E+01  0.69448240402E+01  0.83991274538E+01  0.00000000000E+00 0. -1.
</event>
<event>
 7    1  0.5972636E-013  0.5052886E+02  0.7816164E-02  0.1300439E+00
        -11   -1    0    0    0    0  0.00000000000E+00  0.00000000000E+00  0.45593999997E+02  0.45594000000E+02  0.51100000000E-03 0.  1.
         11   -1    0    0    0    0 -0.00000000000E+00 -0.00000000000E+00 -0.45593999997E+02  0.45594000000E+02  0.51100000000E-03 0. -1.
    9900012    2    1    2    0    0  0.33217575095E+02 -0.14141550819E+02  0.18702274412E+02  0.50528858065E+02  0.29999994574E+02 0.  0.
         12    1    1    2    0    0 -0.33217575095E+02  0.14141550819E+02 -0.18702274412E+02  0.40659141935E+02  0.00000000000E+00 0. -1.
         11    1    3    3    0    0  0.32986097010E+02 -0.19613220941E+02  0.11880604275E+02  0.40173496112E+02  0.51100000000E-03 0. -1.
        -11    1    3    3    0    0  0.21452754555E+01  0.18542354521E+01  0.52588880959E+01  0.59746380776E+01  0.51100000000E-03 0.  1.
         12    1    3    3    0    0 -0.19137973711E+01  0.36174346695E+01  0.15627820414E+01  0.43807238757E+01  0.00000000000E+00 0. -1.
</event>
<event>
 7    1  0.5972636E-013  0.5052887E+02  0.7816164E-02  0.1300439E+00
        -11   -1    0    0    0    0  0.00000000000E+00  0.00000000000E+00  0.45593999997E+02  0.45594000000E+02  0.51100000000E-03 0.  1.
         11   -1    0    0    0    0 -0.00000000000E+00 -0.00000000000E+00 -0.45593999997E+02  0.45594000000E+02  0.51100000000E-03 0. -1.
    9900012    2    1    2    0    0 -0.28043186279E+02  0.27382540138E+01  0.29312906887E+02  0.50528870129E+02  0.30000031244E+02 0.  0.
         12    1    1    2    0    0  0.28043186279E+02 -0.27382540138E+01 -0.29312906887E+02  0.40659129871E+02  0.00000000000E+00 0. -1.
         11    1    3    3    0    0 -0.19461135473E+01  0.76880900077E+01  0.13199604989E+01  0.80396754839E+01  0.51100000000E-03 0. -1.
        -11    1    3    3    0    0 -0.19532303929E+02 -0.43641382212E+00  0.28446702572E+02  0.34509654320E+02  0.51100000000E-03 0.  1.
        -12    1    3    3    0    0 -0.65647688019E+01 -0.45134221718E+01 -0.45375618380E+00  0.79795403249E+01  0.00000000000E+00 0.  1.
</event>
<event>
 7    1  0.5972636E-013  0.5052888E+02  0.7816164E-02  0.1300439E+00
        -11   -1    0    0    0    0  0.00000000000E+00  0.00000000000E+00  0.45593999997E+02  0.45594000000E+02  0.51100000000E-03 0.  1.
         11   -1    0    0    0    0 -0.00000000000E+00 -0.00000000000E+00 -0.45593999997E+02  0.45594000000E+02  0.51100000000E-03 0. -1.
    9900012    2    1    2    0    0 -0.37464169846E+02 -0.58636748326E+01  0.14670297350E+02  0.50528876435E+02  0.30000050410E+02 0.  0.
         12    1    1    2    0    0  0.37464169846E+02  0.58636748326E+01 -0.14670297350E+02  0.40659123565E+02  0.00000000000E+00 0. -1.
         11    1    3    3    0    0 -0.40703629825E+01 -0.98040973898E+01 -0.45943034184E+01  0.11567013642E+02  0.51100000000E-03 0. -1.
        -11    1    3    3    0    0 -0.20136247464E+02  0.86236990954E+00  0.12963568414E+02  0.23963852989E+02  0.51100000000E-03 0.  1.
         12    1    3    3    0    0 -0.13257559399E+02  0.30780526477E+01  0.63010323542E+01  0.14998009803E+02  0.00000000000E+00 0. -1.
</event>
<event>
 7    1  0.5972636E-013  0.5052886E+02  0.7816164E-02  0.1300439E+00
        -11   -1    0    0    0    0  0.00000000000E+00  0.00000000000E+00  0.45593999997E+02  0.45594000000E+02  0.51100000000E-03 0. -1.
         11   -1    0    0    0    0 -0.00000000000E+00 -0.00000000000E+00 -0.45593999997E+02  0.45594000000E+02  0.51100000000E-03 0.  1.
    9900012    2    1    2    0    0 -0.30153515604E+02 -0.30596064595E+00 -0.27273378480E+02  0.50528864631E+02  0.30000014533E+02 0.  0.
         12    1    1    2    0    0  0.30153515604E+02  0.30596064595E+00  0.27273378480E+02  0.40659135369E+02  0.00000000000E+00 0. -1.
         11    1    3    3    0    0 -0.14105090455E+02 -0.10367804525E+02 -0.35418077231E+01  0.17860272944E+02  0.51100000000E-03 0. -1.
        -11    1    3    3    0    0 -0.15736035194E+02  0.43321704758E+01 -0.14683612802E+02  0.21954475394E+02  0.51100000000E-03 0.  1.
         12    1    3    3    0    0 -0.31238995514E+00  0.57296734033E+01 -0.90479579555E+01  0.10714116294E+02  0.00000000000E+00 0. -1.
</event>
<event>
 7    1  0.5972636E-013  0.5052883E+02  0.7816164E-02  0.1300439E+00
        -11   -1    0    0    0    0  0.00000000000E+00  0.00000000000E+00  0.45593999997E+02  0.45594000000E+02  0.51100000000E-03 0. -1.
         11   -1    0    0    0    0 -0.00000000000E+00 -0.00000000000E+00 -0.45593999997E+02  0.45594000000E+02  0.51100000000E-03 0.  1.
    9900012    2    1    2    0    0  0.36698002024E+02  0.35032640541E+01  0.17150846168E+02  0.50528834541E+02  0.29999923070E+02 0.  0.
         12    1    1    2    0    0 -0.36698002024E+02 -0.35032640541E+01 -0.17150846168E+02  0.40659165459E+02  0.00000000000E+00 0. -1.
         11    1    3    3    0    0  0.28984573061E+02 -0.26805998500E+01 -0.20538479655E+00  0.29108989578E+02  0.51100000000E-03 0. -1.
        -11    1    3    3    0    0  0.79717699015E+01  0.18650424383E+01  0.12142967268E+02  0.14645106794E+02  0.51100000000E-03 0.  1.
         12    1    3    3    0    0 -0.25834093839E+00  0.43188214658E+01  0.52132636960E+01  0.67747381689E+01  0.00000000000E+00 0. -1.
</event>
<event>
 7    1  0.5972636E-013  0.5052889E+02  0.7816164E-02  0.1300439E+00
        -11   -1    0    0    0    0  0.00000000000E+00  0.00000000000E+00  0.45593999997E+02  0.45594000000E+02  0.51100000000E-03 0. -1.
         11   -1    0    0    0    0 -0.00000000000E+00 -0.00000000000E+00 -0.45593999997E+02  0.45594000000E+02  0.51100000000E-03 0.  1.
    9900012    2    1    2    0    0  0.78537897162E+01 -0.39665969189E+02  0.42534652567E+01  0.50528891656E+02  0.30000096678E+02 0.  0.
         12    1    1    2    0    0 -0.78537897162E+01  0.39665969189E+02 -0.42534652567E+01  0.40659108344E+02  0.00000000000E+00 0. -1.
         11    1    3    3    0    0  0.12134634995E+02 -0.32247443645E+02  0.10288851953E+02  0.35958412964E+02  0.51100000000E-03 0. -1.
        -11    1    3    3    0    0 -0.23913112673E+01 -0.88352031848E+00 -0.72276770617E+01  0.76640911855E+01  0.51100000000E-03 0.  1.
        -12    1    3    3    0    0 -0.18895340118E+01 -0.65350052259E+01  0.11922903651E+01  0.69063875071E+01  0.00000000000E+00 0.  1.
</event>
<event>
 7    1  0.5972636E-013  0.5052886E+02  0.7816164E-02  0.1300439E+00
        -11   -1    0    0    0    0  0.00000000000E+00  0.00000000000E+00  0.45593999997E+02  0.45594000000E+02  0.51100000000E-03 0.  1.
         11   -1    0    0    0    0 -0.00000000000E+00 -0.00000000000E+00 -0.45593999997E+02  0.45594000000E+02  0.51100000000E-03 0. -1.
    9900012    2    1    2    0    0 -0.67089131106E+01  0.15951047746E+02  0.36792941736E+02  0.50528855876E+02  0.29999987920E+02 0.  0.
         12    1    1    2    0    0  0.67089131106E+01 -0.15951047746E+02 -0.36792941736E+02  0.40659144124E+02  0.00000000000E+00 0. -1.
         11    1    3    3    0    0  0.10372761404E+02  0.52393977352E+01  0.12143838282E+02  0.16808279991E+02  0.51100000000E-03 0. -1.
        -11    1    3    3    0    0 -0.16450123036E+02  0.11255961382E+02  0.17504671402E+02  0.26527659823E+02  0.51100000000E-03 0.  1.
        -12    1    3    3    0    0 -0.63155147883E+00 -0.54431137028E+00  0.71444320515E+01  0.71929160621E+01  0.00000000000E+00 0.  1.
</event>
<event>
 7    1  0.5972636E-013  0.5052886E+02  0.7816164E-02  0.1300439E+00
        -11   -1    0    0    0    0  0.00000000000E+00  0.00000000000E+00  0.45593999997E+02  0.45594000000E+02  0.51100000000E-03 0. -1.
         11   -1    0    0    0    0 -0.00000000000E+00 -0.00000000000E+00 -0.45593999997E+02  0.45594000000E+02  0.51100000000E-03 0.  1.
    9900012    2    1    2    0    0  0.17350433259E+02 -0.30711751422E+02 -0.20221690981E+02  0.50528855938E+02  0.29999988110E+02 0.  0.
         12    1    1    2    0    0 -0.17350433259E+02  0.30711751422E+02  0.20221690981E+02  0.40659144062E+02  0.00000000000E+00 0. -1.
         11    1    3    3    0    0  0.10026891759E+02 -0.25565257070E+02 -0.19664413243E+01  0.27531578581E+02  0.51100000000E-03 0. -1.
        -11    1    3    3    0    0  0.78368835906E+01 -0.78851553466E+01 -0.13528184228E+02  0.17510116733E+02  0.51100000000E-03 0.  1.
         12    1    3    3    0    0 -0.51334209085E+00  0.27386609944E+01 -0.47270654292E+01  0.54871606242E+01  0.00000000000E+00 0. -1.
</event>
<event>
 7    1  0.5972636E-013  0.5052888E+02  0.7816164E-02  0.1300439E+00
        -11   -1    0    0    0    0  0.00000000000E+00  0.00000000000E+00  0.45593999997E+02  0.45594000000E+02  0.51100000000E-03 0.  1.
         11   -1    0    0    0    0 -0.00000000000E+00 -0.00000000000E+00 -0.45593999997E+02  0.45594000000E+02  0.51100000000E-03 0. -1.
    9900012    2    1    2    0    0  0.11967240323E+02 -0.21442536343E+02  0.32406276183E+02  0.50528881197E+02  0.30000064887E+02 0.  0.
         12    1    1    2    0    0 -0.11967240323E+02  0.21442536343E+02 -0.32406276183E+02  0.40659118803E+02  0.00000000000E+00 0. -1.
         11    1    3    3    0    0  0.76244261733E+01  0.10293479069E+01  0.26623368071E+00  0.76982018823E+01  0.51100000000E-03 0. -1.
        -11    1    3    3    0    0 -0.68721741296E+00 -0.10160865117E+02  0.26491981736E+02  0.28382046161E+02  0.51100000000E-03 0.  1.
        -12    1    3    3    0    0  0.50300315624E+01 -0.12311019133E+02  0.56480607660E+01  0.14448633155E+02  0.00000000000E+00 0.  1.
</event>
<event>
 7    1  0.5972636E-013  0.5052887E+02  0.7816164E-02  0.1300439E+00
        -11   -1    0    0    0    0  0.00000000000E+00  0.00000000000E+00  0.45593999997E+02  0.45594000000E+02  0.51100000000E-03 0.  1.
         11   -1    0    0    0    0 -0.00000000000E+00 -0.00000000000E+00 -0.45593999997E+02  0.45594000000E+02  0.51100000000E-03 0. -1.
    9900012    2    1    2    0    0  0.14879135746E+02 -0.12984113630E+02  0.35541366077E+02  0.50528873228E+02  0.30000040662E+02 0.  0.
         12    1    1    2    0    0 -0.14879135746E+02  0.12984113630E+02 -0.35541366077E+02  0.40659126772E+02  0.00000000000E+00 0. -1.
         11    1    3    3    0    0 -0.74213081744E+00  0.15132338529E+01  0.17062913867E+02  0.17145951847E+02  0.51100000000E-03 0. -1.
        -11    1    3    3    0    0  0.97830929145E+01 -0.17631045249E+01 -0.31154227533E+00  0.99455770768E+01  0.51100000000E-03 0.  1.
        -12    1    3    3    0    0  0.58381736486E+01 -0.12734242958E+02  0.18789994485E+02  0.23437344304E+02  0.00000000000E+00 0.  1.
</event>
<event>
 7    1  0.5972636E-013  0.5052888E+02  0.7816164E-02  0.1300439E+00
        -11   -1    0    0    0    0  0.00000000000E+00  0.00000000000E+00  0.45593999997E+02  0.45594000000E+02  0.51100000000E-03 0. -1.
         11   -1    0    0    0    0 -0.00000000000E+00 -0.00000000000E+00 -0.45593999997E+02  0.45594000000E+02  0.51100000000E-03 0.  1.
    9900012    2    1    2    0    0  0.80520924699E+01 -0.18470495891E+02 -0.35315276671E+02  0.50528878293E+02  0.30000056060E+02 0.  0.
         12    1    1    2    0    0 -0.80520924699E+01  0.18470495891E+02  0.35315276671E+02  0.40659121707E+02  0.00000000000E+00 0. -1.
         11    1    3    3    0    0  0.85982182974E+01  0.30000691630E+00 -0.82688335785E+01  0.11932852595E+02  0.51100000000E-03 0. -1.
        -11    1    3    3    0    0 -0.43812329537E+01 -0.22050748696E+02 -0.21772053378E+02  0.31296214288E+02  0.51100000000E-03 0.  1.
        -12    1    3    3    0    0  0.38351071261E+01  0.32802458886E+01 -0.52743897150E+01  0.72998114102E+01  0.00000000000E+00 0.  1.
</event>
<event>
 7    1  0.5972636E-013  0.5052885E+02  0.7816164E-02  0.1300439E+00
        -11   -1    0    0    0    0  0.00000000000E+00  0.00000000000E+00  0.45593999997E+02  0.45594000000E+02  0.51100000000E-03 0.  1.
         11   -1    0    0    0    0 -0.00000000000E+00 -0.00000000000E+00 -0.45593999997E+02  0.45594000000E+02  0.51100000000E-03 0. -1.
    9900012    2    1    2    0    0 -0.22422145590E+01  0.12248259593E+01  0.40578799140E+02  0.50528847717E+02  0.29999963120E+02 0.  0.
         12    1    1    2    0    0  0.22422145590E+01 -0.12248259593E+01 -0.40578799140E+02  0.40659152283E+02  0.00000000000E+00 0. -1.
         11    1    3    3    0    0  0.76608615748E+01 -0.64795307397E+01  0.65321561572E+01  0.11972559584E+02  0.51100000000E-03 0. -1.
        -11    1    3    3    0    0 -0.57470737753E+01 -0.49432162923E+00  0.25009004674E+02  0.25665609790E+02  0.51100000000E-03 0.  1.
         12    1    3    3    0    0 -0.41560023584E+01  0.81986783283E+01  0.90376383084E+01  0.12890678342E+02  0.00000000000E+00 0. -1.
</event>
<event>
 7    1  0.5972636E-013  0.5052887E+02  0.7816164E-02  0.1300439E+00
        -11   -1    0    0    0    0  0.00000000000E+00  0.00000000000E+00  0.45593999997E+02  0.45594000000E+02  0.51100000000E-03 0.  1.
         11   -1    0    0    0    0 -0.00000000000E+00 -0.00000000000E+00 -0.45593999997E+02  0.45594000000E+02  0.51100000000E-03 0. -1.
    9900012    2    1    2    0    0  0.31593449078E+02  0.15565772170E+02  0.20315655782E+02  0.50528866245E+02  0.30000019437E+02 0.  0.
         12    1    1    2    0    0 -0.31593449078E+02 -0.15565772170E+02 -0.20315655782E+02  0.40659133755E+02  0.00000000000E+00 0. -1.
         11    1    3    3    0    0 -0.33971193346E+01  0.98475432701E+00  0.38204092488E+01  0.52063123176E+01  0.51100000000E-03 0. -1.
        -11    1    3    3    0    0  0.21749062675E+02  0.51730366753E+01  0.18418246190E+02  0.28965735425E+02  0.51100000000E-03 0.  1.
         12    1    3    3    0    0  0.13241505738E+02  0.94079811673E+01 -0.19229996574E+01  0.16356818503E+02  0.00000000000E+00 0. -1.
</event>
<event>
 7    1  0.5972636E-013  0.5052883E+02  0.7816164E-02  0.1300439E+00
        -11   -1    0    0    0    0  0.00000000000E+00  0.00000000000E+00  0.45593999997E+02  0.45594000000E+02  0.51100000000E-03 0.  1.
         11   -1    0    0    0    0 -0.00000000000E+00 -0.00000000000E+00 -0.45593999997E+02  0.45594000000E+02  0.51100000000E-03 0. -1.
    9900012    2    1    2    0    0  0.23392920253E+02 -0.32187757047E+02  0.83598852615E+01  0.50528830023E+02  0.29999909336E+02 0.  0.
         12    1    1    2    0    0 -0.23392920253E+02  0.32187757047E+02 -0.83598852615E+01  0.40659169977E+02  0.00000000000E+00 0. -1.
         11    1    3    3    0    0  0.18630188451E+02 -0.46000883504E+01  0.30898015470E+01  0.19436862103E+02  0.51100000000E-03 0. -1.
        -11    1    3    3    0    0 -0.87222832393E-01 -0.24649738267E+02  0.24859329116E+01  0.24774928197E+02  0.51100000000E-03 0.  1.
        -12    1    3    3    0    0  0.48499546348E+01 -0.29379304294E+01  0.27841508029E+01  0.63170397229E+01  0.00000000000E+00 0.  1.
</event>
<event>
 7    1  0.5972636E-013  0.5052886E+02  0.7816164E-02  0.1300439E+00
        -11   -1    0    0    0    0  0.00000000000E+00  0.00000000000E+00  0.45593999997E+02  0.45594000000E+02  0.51100000000E-03 0.  1.
         11   -1    0    0    0    0 -0.00000000000E+00 -0.00000000000E+00 -0.45593999997E+02  0.45594000000E+02  0.51100000000E-03 0. -1.
    9900012    2    1    2    0    0 -0.57398781631E+01 -0.25814991118E+01  0.40169087134E+02  0.50528857115E+02  0.29999991685E+02 0.  0.
         12    1    1    2    0    0  0.57398781631E+01  0.25814991118E+01 -0.40169087134E+02  0.40659142885E+02  0.00000000000E+00 0. -1.
         11    1    3    3    0    0  0.75989167931E+01  0.12919494130E+01  0.30072637595E+02  0.31044745158E+02  0.51100000000E-03 0. -1.
        -11    1    3    3    0    0 -0.78646158115E+01 -0.49167164975E+01  0.17352025815E+01  0.94359531177E+01  0.51100000000E-03 0.  1.
         12    1    3    3    0    0 -0.54741791447E+01  0.10432679727E+01  0.83612469575E+01  0.10048158839E+02  0.00000000000E+00 0. -1.
</event>
<event>
 7    1  0.5972636E-013  0.5052886E+02  0.7816164E-02  0.1300439E+00
        -11   -1    0    0    0    0  0.00000000000E+00  0.00000000000E+00  0.45593999997E+02  0.45594000000E+02  0.51100000000E-03 0.  1.
         11   -1    0    0    0    0 -0.00000000000E+00 -0.00000000000E+00 -0.45593999997E+02  0.45594000000E+02  0.51100000000E-03 0. -1.
    9900012    2    1    2    0    0 -0.11870561304E+02 -0.13048920871E+02  0.36633058852E+02  0.50528861268E+02  0.30000004311E+02 0.  0.
         12    1    1    2    0    0  0.11870561304E+02  0.13048920871E+02 -0.36633058852E+02  0.40659138732E+02  0.00000000000E+00 0. -1.
         11    1    3    3    0    0  0.41448370555E+01 -0.34726912867E+01  0.52514343817E+01  0.75376934347E+01  0.51100000000E-03 0. -1.
        -11    1    3    3    0    0 -0.13289965494E+02 -0.10532323160E+02  0.34681891188E+02  0.38605525390E+02  0.51100000000E-03 0.  1.
        -12    1    3    3    0    0 -0.27254328656E+01  0.95609357563E+00 -0.33002667182E+01  0.43856424434E+01  0.00000000000E+00 0.  1.
</event>
<event>
 7    1  0.5972636E-013  0.5052886E+02  0.7816164E-02  0.1300439E+00
        -11   -1    0    0    0    0  0.00000000000E+00  0.00000000000E+00  0.45593999997E+02  0.45594000000E+02  0.51100000000E-03 0. -1.
         11   -1    0    0    0    0 -0.00000000000E+00 -0.00000000000E+00 -0.45593999997E+02  0.45594000000E+02  0.51100000000E-03 0.  1.
    9900012    2    1    2    0    0 -0.14055322476E+02  0.38148965615E+02  0.51928398388E+00  0.50528864210E+02  0.30000013252E+02 0.  0.
         12    1    1    2    0    0  0.14055322476E+02 -0.38148965615E+02 -0.51928398388E+00  0.40659135790E+02  0.00000000000E+00 0. -1.
         11    1    3    3    0    0  0.34737704133E+01  0.35599173524E+01  0.55420773053E+00  0.50047216615E+01  0.51100000000E-03 0. -1.
        -11    1    3    3    0    0 -0.14838694700E+02  0.18386524519E+02 -0.10703795954E+02  0.25938820181E+02  0.51100000000E-03 0.  1.
        -12    1    3    3    0    0 -0.26903981887E+01  0.16202523743E+02  0.10668872207E+02  0.19585322367E+02  0.00000000000E+00 0.  1.
</event>
<event>
 7    1  0.5972636E-013  0.5052886E+02  0.7816164E-02  0.1300439E+00
        -11   -1    0    0    0    0  0.00000000000E+00  0.00000000000E+00  0.45593999997E+02  0.45594000000E+02  0.51100000000E-03 0.  1.
         11   -1    0    0    0    0 -0.00000000000E+00 -0.00000000000E+00 -0.45593999997E+02  0.45594000000E+02  0.51100000000E-03 0. -1.
    9900012    2    1    2    0    0 -0.21616534245E+02 -0.70670355874E+00  0.34429515392E+02  0.50528861878E+02  0.30000006165E+02 0.  0.
         12    1    1    2    0    0  0.21616534245E+02  0.70670355874E+00 -0.34429515392E+02  0.40659138122E+02  0.00000000000E+00 0. -1.
         11    1    3    3    0    0 -0.10711308092E+02  0.10072190923E+02  0.85461084210E+01  0.17006384696E+02  0.51100000000E-03 0. -1.
        -11    1    3    3    0    0 -0.13147740654E+02 -0.63933437924E+01  0.12409218762E+02  0.19176199825E+02  0.51100000000E-03 0.  1.
         12    1    3    3    0    0  0.22425145008E+01 -0.43855506896E+01  0.13474188208E+02  0.14346277357E+02  0.00000000000E+00 0. -1.
</event>
<event>
 7    1  0.5972636E-013  0.5052885E+02  0.7816164E-02  0.1300439E+00
        -11   -1    0    0    0    0  0.00000000000E+00  0.00000000000E+00  0.45593999997E+02  0.45594000000E+02  0.51100000000E-03 0. -1.
         11   -1    0    0    0    0 -0.00000000000E+00 -0.00000000000E+00 -0.45593999997E+02  0.45594000000E+02  0.51100000000E-03 0.  1.
    9900012    2    1    2    0    0  0.12589759780E+02 -0.15075313273E+02 -0.35600549095E+02  0.50528853212E+02  0.29999979825E+02 0.  0.
         12    1    1    2    0    0 -0.12589759780E+02  0.15075313273E+02  0.35600549095E+02  0.40659146788E+02  0.00000000000E+00 0. -1.
         11    1    3    3    0    0 -0.26687674474E+00 -0.12088831898E+02 -0.22988508882E+01  0.12308362829E+02  0.51100000000E-03 0. -1.
        -11    1    3    3    0    0  0.12730544898E+02  0.19046472193E+01 -0.28908488954E+02  0.31644828777E+02  0.51100000000E-03 0.  1.
        -12    1    3    3    0    0  0.12609162620E+00 -0.48911285944E+01 -0.43932092528E+01  0.65756616066E+01  0.00000000000E+00 0.  1.
</event>
<event>
 7    1  0.5972636E-013  0.5052885E+02  0.7816164E-02  0.1300439E+00
        -11   -1    0    0    0    0  0.00000000000E+00  0.00000000000E+00  0.45593999997E+02  0.45594000000E+02  0.51100000000E-03 0. -1.
         11   -1    0    0    0    0 -0.00000000000E+00 -0.00000000000E+00 -0.45593999997E+02  0.45594000000E+02  0.51100000000E-03 0.  1.
    9900012    2    1    2    0    0  0.11713270231E+02  0.23631654000E+02 -0.30943673542E+02  0.50528847247E+02  0.29999961693E+02 0.  0.
         12    1    1    2    0    0 -0.11713270231E+02 -0.23631654000E+02  0.30943673542E+02  0.40659152753E+02  0.00000000000E+00 0. -1.
         11    1    3    3    0    0  0.10257618327E+01  0.57955088120E+01  0.48501984209E+01  0.76265676887E+01  0.51100000000E-03 0. -1.
        -11    1    3    3    0    0  0.66041384788E+01  0.89104128948E+01 -0.28766565629E+02  0.30830591972E+02  0.51100000000E-03 0.  1.
         12    1    3    3    0    0  0.40833699196E+01  0.89257322934E+01 -0.70273063337E+01  0.12071687586E+02  0.00000000000E+00 0. -1.
</event>
<event>
 7    1  0.5972636E-013  0.5052885E+02  0.7816164E-02  0.1300439E+00
        -11   -1    0    0    0    0  0.00000000000E+00  0.00000000000E+00  0.45593999997E+02  0.45594000000E+02  0.51100000000E-03 0.  1.
         11   -1    0    0    0    0 -0.00000000000E+00 -0.00000000000E+00 -0.45593999997E+02  0.45594000000E+02  0.51100000000E-03 0. -1.
    9900012    2    1    2    0    0 -0.40033118162E+02 -0.63282553915E+01  0.32355439048E+01  0.50528854529E+02  0.29999983827E+02 0.  0.
         12    1    1    2    0    0  0.40033118162E+02  0.63282553915E+01 -0.32355439048E+01  0.40659145471E+02  0.00000000000E+00 0. -1.
         11    1    3    3    0    0 -0.18302930414E+02 -0.14826239529E+02  0.26174942714E+01  0.23699491911E+02  0.51100000000E-03 0. -1.
        -11    1    3    3    0    0 -0.42971621455E+01  0.36235896904E+01  0.57228666365E+01  0.80216711195E+01  0.51100000000E-03 0.  1.
         12    1    3    3    0    0 -0.17433025602E+02  0.48743944475E+01 -0.51048170031E+01  0.18807691498E+02  0.00000000000E+00 0. -1.
</event>
<event>
 7    1  0.5972636E-013  0.5052886E+02  0.7816164E-02  0.1300439E+00
        -11   -1    0    0    0    0  0.00000000000E+00  0.00000000000E+00  0.45593999997E+02  0.45594000000E+02  0.51100000000E-03 0.  1.
         11   -1    0    0    0    0 -0.00000000000E+00 -0.00000000000E+00 -0.45593999997E+02  0.45594000000E+02  0.51100000000E-03 0. -1.
    9900012    2    1    2    0    0  0.17355869752E+02  0.10316904631E+02  0.35291657067E+02  0.50528858414E+02  0.29999995634E+02 0.  0.
         12    1    1    2    0    0 -0.17355869752E+02 -0.10316904631E+02 -0.35291657067E+02  0.40659141586E+02  0.00000000000E+00 0. -1.
         11    1    3    3    0    0  0.10048674351E+02 -0.10843778546E+00 -0.14726003096E+00  0.10050338340E+02  0.51100000000E-03 0. -1.
        -11    1    3    3    0    0  0.80220402480E+01  0.58565927825E+01  0.34309492701E+02  0.35718260013E+02  0.51100000000E-03 0.  1.
         12    1    3    3    0    0 -0.71484484662E+00  0.45687496339E+01  0.11294243973E+01  0.47602600603E+01  0.00000000000E+00 0. -1.
</event>
<event>
 7    1  0.5972636E-013  0.5052886E+02  0.7816164E-02  0.1300439E+00
        -11   -1    0    0    0    0  0.00000000000E+00  0.00000000000E+00  0.45593999997E+02  0.45594000000E+02  0.51100000000E-03 0.  1.
         11   -1    0    0    0    0 -0.00000000000E+00 -0.00000000000E+00 -0.45593999997E+02  0.45594000000E+02  0.51100000000E-03 0. -1.
    9900012    2    1    2    0    0 -0.21644424117E+02 -0.32585582657E+02  0.11084421784E+02  0.50528859592E+02  0.29999999215E+02 0.  0.
         12    1    1    2    0    0  0.21644424117E+02  0.32585582657E+02 -0.11084421784E+02  0.40659140408E+02  0.00000000000E+00 0. -1.
         11    1    3    3    0    0  0.24818289243E+00 -0.14868420319E+01 -0.48815192053E+01  0.51089650604E+01  0.51100000000E-03 0. -1.
        -11    1    3    3    0    0 -0.72250998918E+01 -0.10788051047E+02  0.15689435425E+02  0.20365227670E+02  0.51100000000E-03 0.  1.
        -12    1    3    3    0    0 -0.14667507118E+02 -0.20310689578E+02  0.27650556359E+00  0.25054666861E+02  0.00000000000E+00 0.  1.
</event>
<event>
 7    1  0.5972636E-013  0.5052885E+02  0.7816164E-02  0.1300439E+00
        -11   -1    0    0    0    0  0.00000000000E+00  0.00000000000E+00  0.45593999997E+02  0.45594000000E+02  0.51100000000E-03 0.  1.
         11   -1    0    0    0    0 -0.00000000000E+00 -0.00000000000E+00 -0.45593999997E+02  0.45594000000E+02  0.51100000000E-03 0. -1.
    9900012    2    1    2    0    0 -0.44094271659E+01  0.57007805856E+01  0.40015305117E+02  0.50528848621E+02  0.29999965869E+02 0.  0.
         12    1    1    2    0    0  0.44094271659E+01 -0.57007805856E+01 -0.40015305117E+02  0.40659151379E+02  0.00000000000E+00 0. -1.
         11    1    3    3    0    0 -0.32770912717E+01 -0.27387348770E+00  0.37718648146E+01  0.50041281290E+01  0.51100000000E-03 0. -1.
        -11    1    3    3    0    0  0.15223149199E+01 -0.68465471098E+00  0.38086183344E+02  0.38122743301E+02  0.51100000000E-03 0.  1.
        -12    1    3    3    0    0 -0.26546508141E+01  0.66593087843E+01 -0.18427430414E+01  0.74019771917E+01  0.00000000000E+00 0.  1.
</event>
<event>
 7    1  0.5972636E-013  0.5052888E+02  0.7816164E-02  0.1300439E+00
        -11   -1    0    0    0    0  0.00000000000E+00  0.00000000000E+00  0.45593999997E+02  0.45594000000E+02  0.51100000000E-03 0.  1.
         11   -1    0    0    0    0 -0.00000000000E+00 -0.00000000000E+00 -0.45593999997E+02  0.45594000000E+02  0.51100000000E-03 0. -1.
    9900012    2    1    2    0    0 -0.33578507609E+02 -0.16483457051E+02  0.15935609023E+02  0.50528878458E+02  0.30000056562E+02 0.  0.
         12    1    1    2    0    0  0.33578507609E+02  0.16483457051E+02 -0.15935609023E+02  0.40659121542E+02  0.00000000000E+00 0. -1.
         11    1    3    3    0    0 -0.16303059669E+00 -0.49002773229E+01  0.46999588448E+01  0.67918267220E+01  0.51100000000E-03 0. -1.
        -11    1    3    3    0    0 -0.22260499935E+02 -0.61720302531E+01  0.18297291178E+02  0.29468876455E+02  0.51100000000E-03 0.  1.
        -12    1    3    3    0    0 -0.11154977077E+02 -0.54111494753E+01 -0.70616410004E+01  0.14268175281E+02  0.00000000000E+00 0.  1.
</event>
<event>
 7    1  0.5972636E-013  0.5052886E+02  0.7816164E-02  0.1300439E+00
        -11   -1    0    0    0    0  0.00000000000E+00  0.00000000000E+00  0.45593999997E+02  0.45594000000E+02  0.51100000000E-03 0.  1.
         11   -1    0    0    0    0 -0.00000000000E+00 -0.00000000000E+00 -0.45593999997E+02  0.45594000000E+02  0.51100000000E-03 0. -1.
    9900012    2    1    2    0    0 -0.14491677078E+02  0.80624961994E+01  0.37123483725E+02  0.50528860887E+02  0.30000003152E+02 0.  0.
         12    1    1    2    0    0  0.14491677078E+02 -0.80624961994E+01 -0.37123483725E+02  0.40659139113E+02  0.00000000000E+00 0. -1.
         11    1    3    3    0    0  0.26863674571E+01 -0.78902585421E+01  0.50774102884E+01  0.97597564249E+01  0.51100000000E-03 0. -1.
        -11    1    3    3    0    0 -0.99766657106E+01  0.38667399774E+01  0.17650679818E+02  0.20640543478E+02  0.51100000000E-03 0.  1.
         12    1    3    3    0    0 -0.72013788248E+01  0.12086014764E+02  0.14395393619E+02  0.20128560984E+02  0.00000000000E+00 0. -1.
</event>
<event>
 7    1  0.5972636E-013  0.5052887E+02  0.7816164E-02  0.1300439E+00
        -11   -1    0    0    0    0  0.00000000000E+00  0.00000000000E+00  0.45593999997E+02  0.45594000000E+02  0.51100000000E-03 0.  1.
         11   -1    0    0    0    0 -0.00000000000E+00 -0.00000000000E+00 -0.45593999997E+02  0.45594000000E+02  0.51100000000E-03 0. -1.
    9900012    2    1    2    0    0  0.16757048552E+02  0.42515372176E+01  0.36800691937E+02  0.50528866070E+02  0.30000018906E+02 0.  0.
         12    1    1    2    0    0 -0.16757048552E+02 -0.42515372176E+01 -0.36800691937E+02  0.40659133930E+02  0.00000000000E+00 0. -1.
         11    1    3    3    0    0  0.81070482714E+00  0.12210479442E+01  0.70855291413E+00  0.16279581973E+01  0.51100000000E-03 0. -1.
        -11    1    3    3    0    0 -0.76534198282E+01 -0.30074913926E+01  0.59717216461E+01  0.10162740734E+02  0.51100000000E-03 0.  1.
        -12    1    3    3    0    0  0.23599763553E+02  0.60379806659E+01  0.30120417377E+02  0.38738167139E+02  0.00000000000E+00 0.  1.
</event>
<event>
 7    1  0.5972636E-013  0.5052886E+02  0.7816164E-02  0.1300439E+00
        -11   -1    0    0    0    0  0.00000000000E+00  0.00000000000E+00  0.45593999997E+02  0.45594000000E+02  0.51100000000E-03 0.  1.
         11   -1    0    0    0    0 -0.00000000000E+00 -0.00000000000E+00 -0.45593999997E+02  0.45594000000E+02  0.51100000000E-03 0. -1.
    9900012    2    1    2    0    0  0.54888582295E+01 -0.26048626697E+02  0.30732833926E+02  0.50528860823E+02  0.30000002958E+02 0.  0.
         12    1    1    2    0    0 -0.54888582295E+01  0.26048626697E+02 -0.30732833926E+02  0.40659139177E+02  0.00000000000E+00 0. -1.
         11    1    3    3    0    0  0.73149875371E+01 -0.16558997533E+01  0.76782889802E+01  0.10733460234E+02  0.51100000000E-03 0. -1.
        -11    1    3    3    0    0 -0.87487949051E+00 -0.27556956653E+02  0.15687726360E+02  0.31721538940E+02  0.51100000000E-03 0.  1.
        -12    1    3    3    0    0 -0.95124981715E+00  0.31642297089E+01  0.73668185857E+01  0.80738616498E+01  0.00000000000E+00 0.  1.
</event>
<event>
 7    1  0.5972636E-013  0.5052886E+02  0.7816164E-02  0.1300439E+00
        -11   -1    0    0    0    0  0.00000000000E+00  0.00000000000E+00  0.45593999997E+02  0.45594000000E+02  0.51100000000E-03 0.  1.
         11   -1    0    0    0    0 -0.00000000000E+00 -0.00000000000E+00 -0.45593999997E+02  0.45594000000E+02  0.51100000000E-03 0. -1.
    9900012    2    1    2    0    0  0.31348912699E+02 -0.16301372366E+02  0.20116579895E+02  0.50528857669E+02  0.29999993370E+02 0.  0.
         12    1    1    2    0    0 -0.31348912699E+02  0.16301372366E+02 -0.20116579895E+02  0.40659142331E+02  0.00000000000E+00 0. -1.
         11    1    3    3    0    0  0.19730020490E+02  0.27750213546E+01  0.10577223129E+02  0.22557750363E+02  0.51100000000E-03 0. -1.
        -11    1    3    3    0    0 -0.25906756028E+01 -0.73380255858E+01  0.38485653402E+01  0.86815709993E+01  0.51100000000E-03 0.  1.
         12    1    3    3    0    0  0.14209567812E+02 -0.11738368135E+02  0.56907914254E+01  0.19289536307E+02  0.00000000000E+00 0. -1.
</event>
<event>
 7    1  0.5972636E-013  0.5052882E+02  0.7816164E-02  0.1300439E+00
        -11   -1    0    0    0    0  0.00000000000E+00  0.00000000000E+00  0.45593999997E+02  0.45594000000E+02  0.51100000000E-03 0.  1.
         11   -1    0    0    0    0 -0.00000000000E+00 -0.00000000000E+00 -0.45593999997E+02  0.45594000000E+02  0.51100000000E-03 0. -1.
    9900012    2    1    2    0    0 -0.11926812212E+02 -0.61122622577E+01  0.38386981137E+02  0.50528819976E+02  0.29999878799E+02 0.  0.
         12    1    1    2    0    0  0.11926812212E+02  0.61122622577E+01 -0.38386981137E+02  0.40659180024E+02  0.00000000000E+00 0. -1.
         11    1    3    3    0    0 -0.99177297300E+01  0.27534908388E+01  0.43856863898E+01  0.11188267076E+02  0.51100000000E-03 0. -1.
        -11    1    3    3    0    0 -0.62848541165E+01 -0.12081159649E+02  0.18716309884E+02  0.23146361824E+02  0.51100000000E-03 0.  1.
         12    1    3    3    0    0  0.42757716349E+01  0.32154065521E+01  0.15284984862E+02  0.16194191076E+02  0.00000000000E+00 0. -1.
</event>
<event>
 7    1  0.5972636E-013  0.5052886E+02  0.7816164E-02  0.1300439E+00
        -11   -1    0    0    0    0  0.00000000000E+00  0.00000000000E+00  0.45593999997E+02  0.45594000000E+02  0.51100000000E-03 0. -1.
         11   -1    0    0    0    0 -0.00000000000E+00 -0.00000000000E+00 -0.45593999997E+02  0.45594000000E+02  0.51100000000E-03 0.  1.
    9900012    2    1    2    0    0  0.37390130483E+02 -0.38429328298E+01 -0.15504052003E+02  0.50528860575E+02  0.30000002203E+02 0.  0.
         12    1    1    2    0    0 -0.37390130483E+02  0.38429328298E+01  0.15504052003E+02  0.40659139425E+02  0.00000000000E+00 0. -1.
         11    1    3    3    0    0  0.12363338558E+02 -0.41048091650E+00 -0.15557287376E+01  0.12467595079E+02  0.51100000000E-03 0. -1.
        -11    1    3    3    0    0  0.21468331908E+02  0.81736030226E+01 -0.67266705081E+01  0.23936272844E+02  0.51100000000E-03 0.  1.
        -12    1    3    3    0    0  0.35584600174E+01 -0.11606054936E+02 -0.72216527572E+01  0.14124992652E+02  0.00000000000E+00 0.  1.
</event>
<event>
 7    1  0.5972636E-013  0.5052887E+02  0.7816164E-02  0.1300439E+00
        -11   -1    0    0    0    0  0.00000000000E+00  0.00000000000E+00  0.45593999997E+02  0.45594000000E+02  0.51100000000E-03 0.  1.
         11   -1    0    0    0    0 -0.00000000000E+00 -0.00000000000E+00 -0.45593999997E+02  0.45594000000E+02  0.51100000000E-03 0. -1.
    9900012    2    1    2    0    0  0.43029467960E+01 -0.35915931895E+02 -0.18565964882E+02  0.50528873509E+02  0.30000041517E+02 0.  0.
         12    1    1    2    0    0 -0.43029467960E+01  0.35915931895E+02  0.18565964882E+02  0.40659126491E+02  0.00000000000E+00 0. -1.
         11    1    3    3    0    0  0.91560069779E+01 -0.63489099954E+01 -0.63427413715E+01  0.12820744529E+02  0.51100000000E-03 0. -1.
        -11    1    3    3    0    0 -0.31409744554E+01 -0.27678122124E+02 -0.28578665146E+01  0.28001992181E+02  0.51100000000E-03 0.  1.
        -12    1    3    3    0    0 -0.17120857265E+01 -0.18888997759E+01 -0.93653569958E+01  0.97061367988E+01  0.00000000000E+00 0.  1.
</event>
<event>
 7    1  0.5972636E-013  0.5052884E+02  0.7816164E-02  0.1300439E+00
        -11   -1    0    0    0    0  0.00000000000E+00  0.00000000000E+00  0.45593999997E+02  0.45594000000E+02  0.51100000000E-03 0.  1.
         11   -1    0    0    0    0 -0.00000000000E+00 -0.00000000000E+00 -0.45593999997E+02  0.45594000000E+02  0.51100000000E-03 0. -1.
    9900012    2    1    2    0    0 -0.20716321874E+02  0.19852426986E+02  0.28807674711E+02  0.50528843941E+02  0.29999951643E+02 0.  0.
         12    1    1    2    0    0  0.20716321874E+02 -0.19852426986E+02 -0.28807674711E+02  0.40659156059E+02  0.00000000000E+00 0. -1.
         11    1    3    3    0    0 -0.11068165821E+02  0.41605691167E+01  0.26023800576E+02  0.28584135927E+02  0.51100000000E-03 0. -1.
        -11    1    3    3    0    0 -0.65528905163E+01  0.77730430617E+01 -0.41425605018E+01  0.10978223004E+02  0.51100000000E-03 0.  1.
         12    1    3    3    0    0 -0.30952655365E+01  0.79188148072E+01  0.69264346361E+01  0.10966485009E+02  0.00000000000E+00 0. -1.
</event>
<event>
 7    1  0.5972636E-013  0.5052886E+02  0.7816164E-02  0.1300439E+00
        -11   -1    0    0    0    0  0.00000000000E+00  0.00000000000E+00  0.45593999997E+02  0.45594000000E+02  0.51100000000E-03 0.  1.
         11   -1    0    0    0    0 -0.00000000000E+00 -0.00000000000E+00 -0.45593999997E+02  0.45594000000E+02  0.51100000000E-03 0. -1.
    9900012    2    1    2    0    0  0.16237120715E+02  0.98367902739E+01  0.35954962148E+02  0.50528857915E+02  0.29999994119E+02 0.  0.
         12    1    1    2    0    0 -0.16237120715E+02 -0.98367902739E+01 -0.35954962148E+02  0.40659142085E+02  0.00000000000E+00 0. -1.
         11    1    3    3    0    0  0.14577860103E+02  0.50164146244E+01  0.28769712696E+01  0.15682964797E+02  0.51100000000E-03 0. -1.
        -11    1    3    3    0    0  0.24499727503E+01  0.59491491124E+01  0.32818863871E+02  0.33443572890E+02  0.51100000000E-03 0.  1.
        -12    1    3    3    0    0 -0.79071213844E+00 -0.11287734630E+01  0.25912700785E+00  0.14023202283E+01  0.00000000000E+00 0.  1.
</event>
<event>
 7    1  0.5972636E-013  0.5052886E+02  0.7816164E-02  0.1300439E+00
        -11   -1    0    0    0    0  0.00000000000E+00  0.00000000000E+00  0.45593999997E+02  0.45594000000E+02  0.51100000000E-03 0. -1.
         11   -1    0    0    0    0 -0.00000000000E+00 -0.00000000000E+00 -0.45593999997E+02  0.45594000000E+02  0.51100000000E-03 0.  1.
    9900012    2    1    2    0    0 -0.27867426254E+02  0.26505754728E+02 -0.13191566955E+02  0.50528856890E+02  0.29999991001E+02 0.  0.
         12    1    1    2    0    0  0.27867426254E+02 -0.26505754728E+02  0.13191566955E+02  0.40659143110E+02  0.00000000000E+00 0. -1.
         11    1    3    3    0    0  0.28265500379E+01 -0.60422121020E+00 -0.63138537831E+01  0.69440059218E+01  0.51100000000E-03 0. -1.
        -11    1    3    3    0    0 -0.30700371906E+02  0.28356253978E+02 -0.66531875820E+01  0.42318493358E+02  0.51100000000E-03 0.  1.
        -12    1    3    3    0    0  0.63956138508E-02 -0.12462780393E+01 -0.22452558978E+00  0.12663576097E+01  0.00000000000E+00 0.  1.
</event>
<event>
 7    1  0.5972636E-013  0.5052886E+02  0.7816164E-02  0.1300439E+00
        -11   -1    0    0    0    0  0.00000000000E+00  0.00000000000E+00  0.45593999997E+02  0.45594000000E+02  0.51100000000E-03 0.  1.
         11   -1    0    0    0    0 -0.00000000000E+00 -0.00000000000E+00 -0.45593999997E+02  0.45594000000E+02  0.51100000000E-03 0. -1.
    9900012    2    1    2    0    0  0.21260130563E+02 -0.22635697236E+02  0.26244950052E+02  0.50528863953E+02  0.30000012471E+02 0.  0.
         12    1    1    2    0    0 -0.21260130563E+02  0.22635697236E+02 -0.26244950052E+02  0.40659136047E+02  0.00000000000E+00 0. -1.
         11    1    3    3    0    0  0.14268568936E+01 -0.17826186255E+01 -0.27623254492E+01  0.35838654980E+01  0.51100000000E-03 0. -1.
        -11    1    3    3    0    0  0.17045039963E+02 -0.10820346289E+02  0.30343736318E+02  0.36446613219E+02  0.51100000000E-03 0.  1.
        -12    1    3    3    0    0  0.27882337059E+01 -0.10032732322E+02 -0.13364608170E+01  0.10498385236E+02  0.00000000000E+00 0.  1.
</event>
<event>
 7    1  0.5972636E-013  0.5052886E+02  0.7816164E-02  0.1300439E+00
        -11   -1    0    0    0    0  0.00000000000E+00  0.00000000000E+00  0.45593999997E+02  0.45594000000E+02  0.51100000000E-03 0.  1.
         11   -1    0    0    0    0 -0.00000000000E+00 -0.00000000000E+00 -0.45593999997E+02  0.45594000000E+02  0.51100000000E-03 0. -1.
    9900012    2    1    2    0    0 -0.16640623727E+02  0.35296367828E+02 -0.11420231253E+02  0.50528860538E+02  0.30000002092E+02 0.  0.
         12    1    1    2    0    0  0.16640623727E+02 -0.35296367828E+02  0.11420231253E+02  0.40659139462E+02  0.00000000000E+00 0. -1.
         11    1    3    3    0    0 -0.11836046648E+02 -0.93728882229E+00 -0.42637377483E+00  0.11880753572E+02  0.51100000000E-03 0. -1.
        -11    1    3    3    0    0 -0.58618336548E+01  0.22116468379E+02 -0.62627295549E+01  0.23721742118E+02  0.51100000000E-03 0.  1.
         12    1    3    3    0    0  0.10572565756E+01  0.14117188271E+02 -0.47311279234E+01  0.14926364848E+02  0.00000000000E+00 0. -1.
</event>
<event>
 7    1  0.5972636E-013  0.5052888E+02  0.7816164E-02  0.1300439E+00
        -11   -1    0    0    0    0  0.00000000000E+00  0.00000000000E+00  0.45593999997E+02  0.45594000000E+02  0.51100000000E-03 0. -1.
         11   -1    0    0    0    0 -0.00000000000E+00 -0.00000000000E+00 -0.45593999997E+02  0.45594000000E+02  0.51100000000E-03 0.  1.
    9900012    2    1    2    0    0 -0.52699996137E+01  0.55736865741E+00 -0.40312284706E+02  0.50528882278E+02  0.30000068172E+02 0.  0.
         12    1    1    2    0    0  0.52699996137E+01 -0.55736865741E+00  0.40312284706E+02  0.40659117722E+02  0.00000000000E+00 0. -1.
         11    1    3    3    0    0 -0.11246428668E+02 -0.12494489455E+01 -0.48266874876E+01  0.12302040189E+02  0.51100000000E-03 0. -1.
        -11    1    3    3    0    0  0.70432319542E+01  0.33906185273E+01 -0.10109999074E+02  0.12779494978E+02  0.51100000000E-03 0.  1.
         12    1    3    3    0    0 -0.10668028997E+01 -0.15838009244E+01 -0.25375598144E+02  0.25447347110E+02  0.00000000000E+00 0. -1.
</event>
<event>
 7    1  0.5972636E-013  0.5052889E+02  0.7816164E-02  0.1300439E+00
        -11   -1    0    0    0    0  0.00000000000E+00  0.00000000000E+00  0.45593999997E+02  0.45594000000E+02  0.51100000000E-03 0.  1.
         11   -1    0    0    0    0 -0.00000000000E+00 -0.00000000000E+00 -0.45593999997E+02  0.45594000000E+02  0.51100000000E-03 0. -1.
    9900012    2    1    2    0    0  0.12991580917E+02 -0.34916497603E+02  0.16285584970E+02  0.50528889614E+02  0.30000090471E+02 0.  0.
         12    1    1    2    0    0 -0.12991580917E+02  0.34916497603E+02 -0.16285584970E+02  0.40659110386E+02  0.00000000000E+00 0. -1.
         11    1    3    3    0    0  0.16721936658E+02 -0.66513569061E+01  0.74138223413E+01  0.19463516544E+02  0.51100000000E-03 0. -1.
        -11    1    3    3    0    0 -0.63870897822E+01 -0.20725791642E+02  0.75430631355E+01  0.22961950196E+02  0.51100000000E-03 0.  1.
         12    1    3    3    0    0  0.26567340414E+01 -0.75393490551E+01  0.13286994934E+01  0.81034228746E+01  0.00000000000E+00 0. -1.
</event>
<event>
 7    1  0.5972636E-013  0.5052886E+02  0.7816164E-02  0.1300439E+00
        -11   -1    0    0    0    0  0.00000000000E+00  0.00000000000E+00  0.45593999997E+02  0.45594000000E+02  0.51100000000E-03 0.  1.
         11   -1    0    0    0    0 -0.00000000000E+00 -0.00000000000E+00 -0.45593999997E+02  0.45594000000E+02  0.51100000000E-03 0. -1.
    9900012    2    1    2    0    0 -0.11260286598E+02 -0.26994553700E+02  0.28242971647E+02  0.50528862882E+02  0.30000009217E+02 0.  0.
         12    1    1    2    0    0  0.11260286598E+02  0.26994553700E+02 -0.28242971647E+02  0.40659137118E+02  0.00000000000E+00 0. -1.
         11    1    3    3    0    0 -0.93639163466E+01 -0.63110264702E+01  0.12719682210E+01  0.11363533248E+02  0.51100000000E-03 0.  1.
        -11    1    3    3    0    0  0.86447752882E+01 -0.69883821546E+01  0.10456857104E+02  0.15261568913E+02  0.51100000000E-03 0. -1.
        -12    1    3    3    0    0 -0.10541145540E+02 -0.13695145075E+02  0.16514146322E+02  0.23903760722E+02  0.00000000000E+00 0.  1.
</event>
<event>
 7    1  0.5972636E-013  0.5052886E+02  0.7816164E-02  0.1300439E+00
        -11   -1    0    0    0    0  0.00000000000E+00  0.00000000000E+00  0.45593999997E+02  0.45594000000E+02  0.51100000000E-03 0.  1.
         11   -1    0    0    0    0 -0.00000000000E+00 -0.00000000000E+00 -0.45593999997E+02  0.45594000000E+02  0.51100000000E-03 0. -1.
    9900012    2    1    2    0    0  0.74337077444E+01 -0.19908614700E+02  0.34663424326E+02  0.50528856673E+02  0.29999990343E+02 0.  0.
         12    1    1    2    0    0 -0.74337077444E+01  0.19908614700E+02 -0.34663424326E+02  0.40659143327E+02  0.00000000000E+00 0. -1.
         11    1    3    3    0    0 -0.53769936259E+01  0.48530737417E+01  0.27928056323E+01  0.77629986961E+01  0.51100000000E-03 0. -1.
        -11    1    3    3    0    0  0.12215218638E+02 -0.20868944703E+02  0.29594896004E+02  0.38217565191E+02  0.51100000000E-03 0.  1.
         12    1    3    3    0    0  0.59548273209E+00 -0.38927437391E+01  0.22757226892E+01  0.45482927853E+01  0.00000000000E+00 0. -1.
</event>
<event>
 7    1  0.5972636E-013  0.5052888E+02  0.7816164E-02  0.1300439E+00
        -11   -1    0    0    0    0  0.00000000000E+00  0.00000000000E+00  0.45593999997E+02  0.45594000000E+02  0.51100000000E-03 0.  1.
         11   -1    0    0    0    0 -0.00000000000E+00 -0.00000000000E+00 -0.45593999997E+02  0.45594000000E+02  0.51100000000E-03 0. -1.
    9900012    2    1    2    0    0 -0.12697243671E+02 -0.14840269124E+02  0.35661047961E+02  0.50528881389E+02  0.30000065470E+02 0.  0.
         12    1    1    2    0    0  0.12697243671E+02  0.14840269124E+02 -0.35661047961E+02  0.40659118611E+02  0.00000000000E+00 0. -1.
         11    1    3    3    0    0  0.34575050131E+01 -0.48075942408E+01  0.25309437574E+02  0.25992978549E+02  0.51100000000E-03 0. -1.
        -11    1    3    3    0    0 -0.14871056281E+02 -0.53278907935E+01  0.35906233347E+01  0.16199608372E+02  0.51100000000E-03 0.  1.
        -12    1    3    3    0    0 -0.12836924033E+01 -0.47047840902E+01  0.67609870527E+01  0.83362944675E+01  0.00000000000E+00 0.  1.
</event>
<event>
 7    1  0.5972636E-013  0.5052886E+02  0.7816164E-02  0.1300439E+00
        -11   -1    0    0    0    0  0.00000000000E+00  0.00000000000E+00  0.45593999997E+02  0.45594000000E+02  0.51100000000E-03 0.  1.
         11   -1    0    0    0    0 -0.00000000000E+00 -0.00000000000E+00 -0.45593999997E+02  0.45594000000E+02  0.51100000000E-03 0. -1.
    9900012    2    1    2    0    0  0.34563799277E+02  0.74117225003E+01  0.20089193164E+02  0.50528861631E+02  0.30000005414E+02 0.  0.
         12    1    1    2    0    0 -0.34563799277E+02 -0.74117225003E+01 -0.20089193164E+02  0.40659138369E+02  0.00000000000E+00 0. -1.
         11    1    3    3    0    0  0.23482407459E+02 -0.56979358320E+01  0.16841811502E+01  0.24222435864E+02  0.51100000000E-03 0. -1.
        -11    1    3    3    0    0  0.91742314168E+01  0.54101683816E+01  0.12472246121E+02  0.16401017272E+02  0.51100000000E-03 0.  1.
         12    1    3    3    0    0  0.19071604020E+01  0.76994899507E+01  0.59327658929E+01  0.99054084943E+01  0.00000000000E+00 0. -1.
</event>
<event>
 7    1  0.5972636E-013  0.5052886E+02  0.7816164E-02  0.1300439E+00
        -11   -1    0    0    0    0  0.00000000000E+00  0.00000000000E+00  0.45593999997E+02  0.45594000000E+02  0.51100000000E-03 0.  1.
         11   -1    0    0    0    0 -0.00000000000E+00 -0.00000000000E+00 -0.45593999997E+02  0.45594000000E+02  0.51100000000E-03 0. -1.
    9900012    2    1    2    0    0  0.23861533083E+02  0.32254345849E+02  0.65916863543E+01  0.50528856917E+02  0.29999991086E+02 0.  0.
         12    1    1    2    0    0 -0.23861533083E+02 -0.32254345849E+02 -0.65916863543E+01  0.40659143083E+02  0.00000000000E+00 0. -1.
         11    1    3    3    0    0 -0.40307948947E+01  0.54726970793E+00 -0.31809117444E+01  0.51638175222E+01  0.51100000000E-03 0. -1.
        -11    1    3    3    0    0  0.24781913731E+02  0.25100658660E+02  0.12711794142E+02  0.37493679786E+02  0.51100000000E-03 0.  1.
         12    1    3    3    0    0  0.31104142475E+01  0.66064174810E+01 -0.29391960429E+01  0.78713596096E+01  0.00000000000E+00 0. -1.
</event>
<event>
 7    1  0.5972636E-013  0.5052886E+02  0.7816164E-02  0.1300439E+00
        -11   -1    0    0    0    0  0.00000000000E+00  0.00000000000E+00  0.45593999997E+02  0.45594000000E+02  0.51100000000E-03 0.  1.
         11   -1    0    0    0    0 -0.00000000000E+00 -0.00000000000E+00 -0.45593999997E+02  0.45594000000E+02  0.51100000000E-03 0. -1.
    9900012    2    1    2    0    0 -0.32296618157E+02  0.15824624867E+02  0.18965105691E+02  0.50528861662E+02  0.30000005507E+02 0.  0.
         12    1    1    2    0    0  0.32296618157E+02 -0.15824624867E+02 -0.18965105691E+02  0.40659138338E+02  0.00000000000E+00 0. -1.
         11    1    3    3    0    0 -0.85448608514E+01  0.19689603694E+02  0.59553207872E+01  0.22274671413E+02  0.51100000000E-03 0. -1.
        -11    1    3    3    0    0 -0.91421499608E+01 -0.41132419040E+01  0.79386756679E+01  0.12787503137E+02  0.51100000000E-03 0.  1.
         12    1    3    3    0    0 -0.14609607345E+02  0.24826307659E+00  0.50711092356E+01  0.15466687112E+02  0.00000000000E+00 0. -1.
</event>
<event>
 7    1  0.5972636E-013  0.5052887E+02  0.7816164E-02  0.1300439E+00
        -11   -1    0    0    0    0  0.00000000000E+00  0.00000000000E+00  0.45593999997E+02  0.45594000000E+02  0.51100000000E-03 0. -1.
         11   -1    0    0    0    0 -0.00000000000E+00 -0.00000000000E+00 -0.45593999997E+02  0.45594000000E+02  0.51100000000E-03 0.  1.
    9900012    2    1    2    0    0  0.36913689524E+02 -0.74735673052E+01  0.15319612297E+02  0.50528865682E+02  0.30000017728E+02 0.  0.
         12    1    1    2    0    0 -0.36913689524E+02  0.74735673052E+01 -0.15319612297E+02  0.40659134318E+02  0.00000000000E+00 0. -1.
         11    1    3    3    0    0 -0.24043578622E+01 -0.10294384084E+00  0.55646217120E+01  0.60627179732E+01  0.51100000000E-03 0. -1.
        -11    1    3    3    0    0  0.27940726296E+02 -0.28799405395E+01 -0.11032044071E+01  0.28110412727E+02  0.51100000000E-03 0.  1.
         12    1    3    3    0    0  0.11377321090E+02 -0.44906829248E+01  0.10858194993E+02  0.16355734982E+02  0.00000000000E+00 0. -1.
</event>
<event>
 7    1  0.5972636E-013  0.5052886E+02  0.7816164E-02  0.1300439E+00
        -11   -1    0    0    0    0  0.00000000000E+00  0.00000000000E+00  0.45593999997E+02  0.45594000000E+02  0.51100000000E-03 0. -1.
         11   -1    0    0    0    0 -0.00000000000E+00 -0.00000000000E+00 -0.45593999997E+02  0.45594000000E+02  0.51100000000E-03 0.  1.
    9900012    2    1    2    0    0  0.38401637936E+02 -0.35495588764E+01 -0.12879466375E+02  0.50528858120E+02  0.29999994740E+02 0.  0.
         12    1    1    2    0    0 -0.38401637936E+02  0.35495588764E+01  0.12879466375E+02  0.40659141880E+02  0.00000000000E+00 0. -1.
         11    1    3    3    0    0  0.30366683504E+02 -0.12559537374E+02 -0.89484863122E+01  0.34058080592E+02  0.51100000000E-03 0. -1.
        -11    1    3    3    0    0  0.65018419152E+01  0.50884370512E+01 -0.73445840463E+01  0.11050296602E+02  0.51100000000E-03 0.  1.
         12    1    3    3    0    0  0.15331125164E+01  0.39215414462E+01  0.34136039841E+01  0.54204809254E+01  0.00000000000E+00 0. -1.
</event>
<event>
 7    1  0.9389539E-013  0.5052886E+02  0.7816164E-02  0.1300439E+00
        -11   -1    0    0    0    0  0.00000000000E+00  0.00000000000E+00  0.45593999997E+02  0.45594000000E+02  0.51100000000E-03 0.  1.
         11   -1    0    0    0    0 -0.00000000000E+00 -0.00000000000E+00 -0.45593999997E+02  0.45594000000E+02  0.51100000000E-03 0. -1.
    9900012    2    1    2    0    0  0.40591694788E+02  0.22511044641E+01 -0.64241310272E+00  0.50528857711E+02  0.29999993498E+02 0.  0.
         12    1    1    2    0    0 -0.40591694788E+02 -0.22511044641E+01  0.64241310272E+00  0.40659142289E+02  0.00000000000E+00 0. -1.
         11    1    3    3    0    0  0.87719874592E+00 -0.26320133777E+01 -0.41198996752E+01  0.49669453042E+01  0.51100000000E-03 0. -1.
        -11    1    3    3    0    0  0.28461093500E+02  0.13187000718E+02  0.11870694256E+01  0.31390125282E+02  0.51100000000E-03 0.  1.
        -12    1    3    3    0    0  0.11253402543E+02 -0.83038828760E+01  0.22904171469E+01  0.14171787125E+02  0.00000000000E+00 0.  1.
</event>
<event>
 7    1  0.5972636E-013  0.5052888E+02  0.7816164E-02  0.1300439E+00
        -11   -1    0    0    0    0  0.00000000000E+00  0.00000000000E+00  0.45593999997E+02  0.45594000000E+02  0.51100000000E-03 0.  1.
         11   -1    0    0    0    0 -0.00000000000E+00 -0.00000000000E+00 -0.45593999997E+02  0.45594000000E+02  0.51100000000E-03 0. -1.
    9900012    2    1    2    0    0  0.10340301328E+02 -0.28626949166E+02  0.26958121514E+02  0.50528875986E+02  0.30000049046E+02 0.  0.
         12    1    1    2    0    0 -0.10340301328E+02  0.28626949166E+02 -0.26958121514E+02  0.40659124014E+02  0.00000000000E+00 0. -1.
         11    1    3    3    0    0  0.16536310029E+01 -0.26179262188E+01  0.19717519777E+02  0.19959173821E+02  0.51100000000E-03 0. -1.
        -11    1    3    3    0    0 -0.17041552621E+01 -0.12366952507E+02  0.40693311562E+01  0.13130312859E+02  0.51100000000E-03 0.  1.
         12    1    3    3    0    0  0.10390825587E+02 -0.13642070440E+02  0.31712705806E+01  0.17439389306E+02  0.00000000000E+00 0. -1.
</event>
<event>
 7    1  0.5972636E-013  0.5052886E+02  0.7816164E-02  0.1300439E+00
        -11   -1    0    0    0    0  0.00000000000E+00  0.00000000000E+00  0.45593999997E+02  0.45594000000E+02  0.51100000000E-03 0.  1.
         11   -1    0    0    0    0 -0.00000000000E+00 -0.00000000000E+00 -0.45593999997E+02  0.45594000000E+02  0.51100000000E-03 0. -1.
    9900012    2    1    2    0    0 -0.12917210746E+02 -0.13524364565E+02  0.36102676715E+02  0.50528855441E+02  0.29999986597E+02 0.  0.
         12    1    1    2    0    0  0.12917210746E+02  0.13524364565E+02 -0.36102676715E+02  0.40659144559E+02  0.00000000000E+00 0. -1.
         11    1    3    3    0    0 -0.58128815463E+01 -0.53871812337E+00 -0.33370905772E+01  0.67242830748E+01  0.51100000000E-03 0. -1.
        -11    1    3    3    0    0 -0.19314067955E+01 -0.12788372884E+02  0.33586096402E+02  0.35990258196E+02  0.51100000000E-03 0.  1.
         12    1    3    3    0    0 -0.51729224043E+01 -0.19727355739E+00  0.58536708900E+01  0.78143141699E+01  0.00000000000E+00 0. -1.
</event>
<event>
 7    1  0.5972636E-013  0.5052886E+02  0.7816164E-02  0.1300439E+00
        -11   -1    0    0    0    0  0.00000000000E+00  0.00000000000E+00  0.45593999997E+02  0.45594000000E+02  0.51100000000E-03 0.  1.
         11   -1    0    0    0    0 -0.00000000000E+00 -0.00000000000E+00 -0.45593999997E+02  0.45594000000E+02  0.51100000000E-03 0. -1.
    9900012    2    1    2    0    0 -0.10539102323E+02  0.38647910379E+02  0.69592985227E+01  0.50528862154E+02  0.30000007005E+02 0.  0.
         12    1    1    2    0    0  0.10539102323E+02 -0.38647910379E+02 -0.69592985227E+01  0.40659137846E+02  0.00000000000E+00 0. -1.
         11    1    3    3    0    0  0.75825727158E+01  0.21636802098E+01  0.47833481494E+00  0.78997294572E+01  0.51100000000E-03 0. -1.
        -11    1    3    3    0    0 -0.15054339625E+02  0.20218500390E+02  0.11284057060E+01  0.25232800068E+02  0.51100000000E-03 0.  1.
         12    1    3    3    0    0 -0.30673354136E+01  0.16265729779E+02  0.53525580018E+01  0.17396332629E+02  0.00000000000E+00 0. -1.
</event>
<event>
 7    1  0.5972636E-013  0.5052887E+02  0.7816164E-02  0.1300439E+00
        -11   -1    0    0    0    0  0.00000000000E+00  0.00000000000E+00  0.45593999997E+02  0.45594000000E+02  0.51100000000E-03 0. -1.
         11   -1    0    0    0    0 -0.00000000000E+00 -0.00000000000E+00 -0.45593999997E+02  0.45594000000E+02  0.51100000000E-03 0.  1.
    9900012    2    1    2    0    0  0.94071042431E+01  0.34641691707E+02 -0.19095134177E+02  0.50528873548E+02  0.30000041636E+02 0.  0.
         12    1    1    2    0    0 -0.94071042431E+01 -0.34641691707E+02  0.19095134177E+02  0.40659126452E+02  0.00000000000E+00 0. -1.
         11    1    3    3    0    0  0.10880764559E+01  0.20769234732E+02 -0.13560439944E+02  0.24828019524E+02  0.51100000000E-03 0.  1.
        -11    1    3    3    0    0  0.81666530892E+01 -0.24772023678E+01 -0.32392348252E+00  0.85402389272E+01  0.51100000000E-03 0. -1.
         12    1    3    3    0    0  0.15237469804E+00  0.16349659343E+02 -0.52107707507E+01  0.17160615097E+02  0.00000000000E+00 0. -1.
</event>
<event>
 7    1  0.5972636E-013  0.5052885E+02  0.7816164E-02  0.1300439E+00
        -11   -1    0    0    0    0  0.00000000000E+00  0.00000000000E+00  0.45593999997E+02  0.45594000000E+02  0.51100000000E-03 0.  1.
         11   -1    0    0    0    0 -0.00000000000E+00 -0.00000000000E+00 -0.45593999997E+02  0.45594000000E+02  0.51100000000E-03 0. -1.
    9900012    2    1    2    0    0  0.68797983305E+01  0.23800178735E+02  0.32239519184E+02  0.50528846908E+02  0.29999960663E+02 0.  0.
         12    1    1    2    0    0 -0.68797983305E+01 -0.23800178735E+02 -0.32239519184E+02  0.40659153092E+02  0.00000000000E+00 0. -1.
         11    1    3    3    0    0  0.68371390477E+01  0.97047794694E+01  0.11452469603E+01  0.11926474993E+02  0.51100000000E-03 0. -1.
        -11    1    3    3    0    0  0.17408633793E+01  0.17544598444E+02  0.19037405298E+02  0.25947376372E+02  0.51100000000E-03 0.  1.
         12    1    3    3    0    0 -0.16982040965E+01 -0.34491991780E+01  0.12056866926E+02  0.12654995543E+02  0.00000000000E+00 0. -1.
</event>
<event>
 7    1  0.5972636E-013  0.5052886E+02  0.7816164E-02  0.1300439E+00
        -11   -1    0    0    0    0  0.00000000000E+00  0.00000000000E+00  0.45593999997E+02  0.45594000000E+02  0.51100000000E-03 0.  1.
         11   -1    0    0    0    0 -0.00000000000E+00 -0.00000000000E+00 -0.45593999997E+02  0.45594000000E+02  0.51100000000E-03 0. -1.
    9900012    2    1    2    0    0 -0.80928528068E+01 -0.37311860853E+02 -0.13982001771E+02  0.50528860801E+02  0.30000002890E+02 0.  0.
         12    1    1    2    0    0  0.80928528068E+01  0.37311860853E+02  0.13982001771E+02  0.40659139199E+02  0.00000000000E+00 0. -1.
         11    1    3    3    0    0 -0.72699714591E+01 -0.35120728239E+02 -0.19859075093E+02  0.40996352287E+02  0.51100000000E-03 0. -1.
        -11    1    3    3    0    0 -0.35423202090E+01 -0.27209600801E+01  0.23493938048E+01  0.50469107117E+01  0.51100000000E-03 0.  1.
         12    1    3    3    0    0  0.27194388612E+01  0.52982746552E+00  0.35276795174E+01  0.44855978019E+01  0.00000000000E+00 0. -1.
</event>
<event>
 7    1  0.5972636E-013  0.5052887E+02  0.7816164E-02  0.1300439E+00
        -11   -1    0    0    0    0  0.00000000000E+00  0.00000000000E+00  0.45593999997E+02  0.45594000000E+02  0.51100000000E-03 0. -1.
         11   -1    0    0    0    0 -0.00000000000E+00 -0.00000000000E+00 -0.45593999997E+02  0.45594000000E+02  0.51100000000E-03 0.  1.
    9900012    2    1    2    0    0  0.34865673897E+02  0.84729771269E+01  0.19124814931E+02  0.50528866908E+02  0.30000021452E+02 0.  0.
         12    1    1    2    0    0 -0.34865673897E+02 -0.84729771269E+01 -0.19124814931E+02  0.40659133092E+02  0.00000000000E+00 0. -1.
         11    1    3    3    0    0  0.21440584376E+02 -0.85340682905E+01  0.60517207153E+01  0.23856913125E+02  0.51100000000E-03 0.  1.
        -11    1    3    3    0    0  0.76552659964E+01  0.12727313162E+02  0.45676585205E+01  0.15538696934E+02  0.51100000000E-03 0. -1.
         12    1    3    3    0    0  0.57698235243E+01  0.42797322555E+01  0.85054356954E+01  0.11133256848E+02  0.00000000000E+00 0. -1.
</event>
<event>
 7    1  0.5972636E-013  0.5052889E+02  0.7816164E-02  0.1300439E+00
        -11   -1    0    0    0    0  0.00000000000E+00  0.00000000000E+00  0.45593999997E+02  0.45594000000E+02  0.51100000000E-03 0. -1.
         11   -1    0    0    0    0 -0.00000000000E+00 -0.00000000000E+00 -0.45593999997E+02  0.45594000000E+02  0.51100000000E-03 0.  1.
    9900012    2    1    2    0    0  0.36646934949E+02  0.13697504638E+02 -0.11069941678E+02  0.50528891756E+02  0.30000096982E+02 0.  0.
         12    1    1    2    0    0 -0.36646934949E+02 -0.13697504638E+02  0.11069941678E+02  0.40659108244E+02  0.00000000000E+00 0. -1.
         11    1    3    3    0    0  0.10419809441E+02 -0.30184687224E+01  0.76795919486E+01  0.13291339849E+02  0.51100000000E-03 0. -1.
        -11    1    3    3    0    0  0.17105574082E+02  0.80806941666E+01 -0.74169974528E+01  0.20320190313E+02  0.51100000000E-03 0.  1.
         12    1    3    3    0    0  0.91215514248E+01  0.86352791937E+01 -0.11332536174E+02  0.16917361594E+02  0.00000000000E+00 0. -1.
</event>
<event>
 7    1  0.5972636E-013  0.5052887E+02  0.7816164E-02  0.1300439E+00
        -11   -1    0    0    0    0  0.00000000000E+00  0.00000000000E+00  0.45593999997E+02  0.45594000000E+02  0.51100000000E-03 0.  1.
         11   -1    0    0    0    0 -0.00000000000E+00 -0.00000000000E+00 -0.45593999997E+02  0.45594000000E+02  0.51100000000E-03 0. -1.
    9900012    2    1    2    0    0  0.25198196231E+01  0.40552678832E+02 -0.15150495607E+01  0.50528872776E+02  0.30000039291E+02 0.  0.
         12    1    1    2    0    0 -0.25198196231E+01 -0.40552678832E+02  0.15150495607E+01  0.40659127224E+02  0.00000000000E+00 0. -1.
         11    1    3    3    0    0 -0.35681958002E+01  0.13222029945E+01 -0.43277078920E+01  0.57627508958E+01  0.51100000000E-03 0. -1.
        -11    1    3    3    0    0  0.10180470490E+02  0.30425578438E+02 -0.47835289153E+01  0.32438248285E+02  0.51100000000E-03 0.  1.
        -12    1    3    3    0    0 -0.40924550667E+01  0.88048974000E+01  0.75961872466E+01  0.12327873595E+02  0.00000000000E+00 0.  1.
</event>
<event>
 7    1  0.5972636E-013  0.5052889E+02  0.7816164E-02  0.1300439E+00
        -11   -1    0    0    0    0  0.00000000000E+00  0.00000000000E+00  0.45593999997E+02  0.45594000000E+02  0.51100000000E-03 0.  1.
         11   -1    0    0    0    0 -0.00000000000E+00 -0.00000000000E+00 -0.45593999997E+02  0.45594000000E+02  0.51100000000E-03 0. -1.
    9900012    2    1    2    0    0  0.20706071247E+02  0.32402819986E+02  0.13209048312E+02  0.50528891711E+02  0.30000096845E+02 0.  0.
         12    1    1    2    0    0 -0.20706071247E+02 -0.32402819986E+02 -0.13209048312E+02  0.40659108289E+02  0.00000000000E+00 0. -1.
         11    1    3    3    0    0 -0.46378325745E+01  0.93510069867E+01 -0.12144536062E+01  0.10508364310E+02  0.51100000000E-03 0. -1.
        -11    1    3    3    0    0  0.20958745280E+02  0.15862555007E+02  0.39476034778E+01  0.26579564115E+02  0.51100000000E-03 0.  1.
         12    1    3    3    0    0  0.43851585423E+01  0.71892579917E+01  0.10475898441E+02  0.13440963286E+02  0.00000000000E+00 0. -1.
</event>
<event>
 7    1  0.5972636E-013  0.5052885E+02  0.7816164E-02  0.1300439E+00
        -11   -1    0    0    0    0  0.00000000000E+00  0.00000000000E+00  0.45593999997E+02  0.45594000000E+02  0.51100000000E-03 0. -1.
         11   -1    0    0    0    0 -0.00000000000E+00 -0.00000000000E+00 -0.45593999997E+02  0.45594000000E+02  0.51100000000E-03 0.  1.
    9900012    2    1    2    0    0 -0.82672288905E+01 -0.94491785154E+01 -0.38672115023E+02  0.50528849388E+02  0.29999968199E+02 0.  0.
         12    1    1    2    0    0  0.82672288905E+01  0.94491785154E+01  0.38672115023E+02  0.40659150612E+02  0.00000000000E+00 0. -1.
         11    1    3    3    0    0 -0.31225017407E+01 -0.11098436086E+02 -0.10591423624E+02  0.15655783446E+02  0.51100000000E-03 0. -1.
        -11    1    3    3    0    0  0.72417611977E+01  0.31581737229E+01 -0.13863811713E+02  0.15956893243E+02  0.51100000000E-03 0.  1.
        -12    1    3    3    0    0 -0.12386488348E+02 -0.15089161526E+01 -0.14216879687E+02  0.18916172699E+02  0.00000000000E+00 0.  1.
</event>
<event>
 7    1  0.5972636E-013  0.5052886E+02  0.7816164E-02  0.1300439E+00
        -11   -1    0    0    0    0  0.00000000000E+00  0.00000000000E+00  0.45593999997E+02  0.45594000000E+02  0.51100000000E-03 0. -1.
         11   -1    0    0    0    0 -0.00000000000E+00 -0.00000000000E+00 -0.45593999997E+02  0.45594000000E+02  0.51100000000E-03 0.  1.
    9900012    2    1    2    0    0 -0.27366415875E+02 -0.48475409960E+01 -0.29677374620E+02  0.50528856676E+02  0.29999990352E+02 0.  0.
         12    1    1    2    0    0  0.27366415875E+02  0.48475409960E+01  0.29677374620E+02  0.40659143324E+02  0.00000000000E+00 0. -1.
         11    1    3    3    0    0 -0.13443877185E+02 -0.18143369379E+01  0.82636030149E+00  0.13590898568E+02  0.51100000000E-03 0. -1.
        -11    1    3    3    0    0 -0.45589705669E+01  0.26220550354E+01 -0.23191092514E+02  0.23779952849E+02  0.51100000000E-03 0.  1.
        -12    1    3    3    0    0 -0.93635681232E+01 -0.56552590935E+01 -0.73126424070E+01  0.13158005259E+02  0.00000000000E+00 0.  1.
</event>
<event>
 7    1  0.5972636E-013  0.5052886E+02  0.7816164E-02  0.1300439E+00
        -11   -1    0    0    0    0  0.00000000000E+00  0.00000000000E+00  0.45593999997E+02  0.45594000000E+02  0.51100000000E-03 0.  1.
         11   -1    0    0    0    0 -0.00000000000E+00 -0.00000000000E+00 -0.45593999997E+02  0.45594000000E+02  0.51100000000E-03 0. -1.
    9900012    2    1    2    0    0 -0.38190283835E+02 -0.10935025586E+02  0.86656214738E+01  0.50528861305E+02  0.30000004421E+02 0.  0.
         12    1    1    2    0    0  0.38190283835E+02  0.10935025586E+02 -0.86656214738E+01  0.40659138695E+02  0.00000000000E+00 0. -1.
         11    1    3    3    0    0 -0.20957666686E+02 -0.13199850886E+02 -0.71246170934E+01  0.25772466419E+02  0.51100000000E-03 0. -1.
        -11    1    3    3    0    0 -0.16313539134E+02  0.57926665278E+00  0.11244458801E+02  0.19821830463E+02  0.51100000000E-03 0.  1.
         12    1    3    3    0    0 -0.91907801433E+00  0.16855586474E+01  0.45457797666E+01  0.49345644222E+01  0.00000000000E+00 0. -1.
</event>
<event>
 7    1  0.5972636E-013  0.5052886E+02  0.7816164E-02  0.1300439E+00
        -11   -1    0    0    0    0  0.00000000000E+00  0.00000000000E+00  0.45593999997E+02  0.45594000000E+02  0.51100000000E-03 0. -1.
         11   -1    0    0    0    0 -0.00000000000E+00 -0.00000000000E+00 -0.45593999997E+02  0.45594000000E+02  0.51100000000E-03 0.  1.
    9900012    2    1    2    0    0 -0.13748853922E+02 -0.20368745518E+02 -0.32392115994E+02  0.50528856419E+02  0.29999989573E+02 0.  0.
         12    1    1    2    0    0  0.13748853922E+02  0.20368745518E+02  0.32392115994E+02  0.40659143581E+02  0.00000000000E+00 0. -1.
         11    1    3    3    0    0  0.71017798087E+01 -0.18579843438E+00 -0.22291728284E+01  0.74457376578E+01  0.51100000000E-03 0. -1.
        -11    1    3    3    0    0 -0.15259372037E+02 -0.14352880209E+02 -0.27515250549E+02  0.34582403304E+02  0.51100000000E-03 0.  1.
         12    1    3    3    0    0 -0.55912616945E+01 -0.58300668751E+01 -0.26476926165E+01  0.85007154579E+01  0.00000000000E+00 0. -1.
</event>
<event>
 7    1  0.5972636E-013  0.5052885E+02  0.7816164E-02  0.1300439E+00
        -11   -1    0    0    0    0  0.00000000000E+00  0.00000000000E+00  0.45593999997E+02  0.45594000000E+02  0.51100000000E-03 0.  1.
         11   -1    0    0    0    0 -0.00000000000E+00 -0.00000000000E+00 -0.45593999997E+02  0.45594000000E+02  0.51100000000E-03 0. -1.
    9900012    2    1    2    0    0  0.16093316168E+02 -0.67515998566E+01  0.36723122539E+02  0.50528847833E+02  0.29999963474E+02 0.  0.
         12    1    1    2    0    0 -0.16093316168E+02  0.67515998566E+01 -0.36723122539E+02  0.40659152167E+02  0.00000000000E+00 0. -1.
         11    1    3    3    0    0  0.44921779634E+01 -0.62659013444E+01  0.37422850041E+02  0.38208780247E+02  0.51100000000E-03 0. -1.
        -11    1    3    3    0    0  0.32665678134E+01  0.15985868078E+01  0.40022258793E+00  0.36587051592E+01  0.51100000000E-03 0.  1.
         12    1    3    3    0    0  0.83345703912E+01 -0.20842853200E+01 -0.10999500896E+01  0.86613624275E+01  0.00000000000E+00 0. -1.
</event>
<event>
 7    1  0.5972636E-013  0.5052889E+02  0.7816164E-02  0.1300439E+00
        -11   -1    0    0    0    0  0.00000000000E+00  0.00000000000E+00  0.45593999997E+02  0.45594000000E+02  0.51100000000E-03 0. -1.
         11   -1    0    0    0    0 -0.00000000000E+00 -0.00000000000E+00 -0.45593999997E+02  0.45594000000E+02  0.51100000000E-03 0.  1.
    9900012    2    1    2    0    0 -0.13383379946E+02  0.37846425435E+02  0.64573075988E+01  0.50528885420E+02  0.30000077723E+02 0.  0.
         12    1    1    2    0    0  0.13383379946E+02 -0.37846425435E+02 -0.64573075988E+01  0.40659114580E+02  0.00000000000E+00 0. -1.
         11    1    3    3    0    0  0.16752800066E+01 -0.31441049825E+01 -0.19500771088E-01  0.35626310198E+01  0.51100000000E-03 0. -1.
        -11    1    3    3    0    0 -0.83494184507E+01  0.30991466638E+02 -0.21270459035E+01  0.32166879198E+02  0.51100000000E-03 0.  1.
         12    1    3    3    0    0 -0.67092415023E+01  0.99990637797E+01  0.86038542734E+01  0.14799375202E+02  0.00000000000E+00 0. -1.
</event>
<event>
 7    1  0.5972636E-013  0.5052885E+02  0.7816164E-02  0.1300439E+00
        -11   -1    0    0    0    0  0.00000000000E+00  0.00000000000E+00  0.45593999997E+02  0.45594000000E+02  0.51100000000E-03 0. -1.
         11   -1    0    0    0    0 -0.00000000000E+00 -0.00000000000E+00 -0.45593999997E+02  0.45594000000E+02  0.51100000000E-03 0.  1.
    9900012    2    1    2    0    0  0.26405574410E+02 -0.29723910761E+02  0.85088725111E+01  0.50528854137E+02  0.29999982636E+02 0.  0.
         12    1    1    2    0    0 -0.26405574410E+02  0.29723910761E+02 -0.85088725111E+01  0.40659145863E+02  0.00000000000E+00 0. -1.
         11    1    3    3    0    0  0.66817004349E+01  0.34016412802E+01  0.41990488189E+01  0.85935030893E+01  0.51100000000E-03 0. -1.
        -11    1    3    3    0    0  0.19366565330E+02 -0.23363403387E+02 -0.18227671039E+01  0.30401232716E+02  0.51100000000E-03 0.  1.
         12    1    3    3    0    0  0.35730864527E+00 -0.97621486548E+01  0.61325907961E+01  0.11534118332E+02  0.00000000000E+00 0. -1.
</event>
<event>
 7    1  0.5972636E-013  0.5052886E+02  0.7816164E-02  0.1300439E+00
        -11   -1    0    0    0    0  0.00000000000E+00  0.00000000000E+00  0.45593999997E+02  0.45594000000E+02  0.51100000000E-03 0.  1.
         11   -1    0    0    0    0 -0.00000000000E+00 -0.00000000000E+00 -0.45593999997E+02  0.45594000000E+02  0.51100000000E-03 0. -1.
    9900012    2    1    2    0    0  0.16237841698E+01  0.15268666653E+02  0.37648332201E+02  0.50528858667E+02  0.29999996405E+02 0.  0.
         12    1    1    2    0    0 -0.16237841698E+01 -0.15268666653E+02 -0.37648332201E+02  0.40659141333E+02  0.00000000000E+00 0. -1.
         11    1    3    3    0    0 -0.62980601578E+01  0.23901401902E+01  0.31779832391E+02  0.32485936633E+02  0.51100000000E-03 0.  1.
        -11    1    3    3    0    0  0.17935759712E+01  0.36701171685E-01  0.30482995378E+01  0.35370032618E+01  0.51100000000E-03 0. -1.
         12    1    3    3    0    0  0.61282683564E+01  0.12841825291E+02  0.28202002722E+01  0.14505918772E+02  0.00000000000E+00 0. -1.
</event>
<event>
 7    1  0.5972636E-013  0.5052886E+02  0.7816164E-02  0.1300439E+00
        -11   -1    0    0    0    0  0.00000000000E+00  0.00000000000E+00  0.45593999997E+02  0.45594000000E+02  0.51100000000E-03 0.  1.
         11   -1    0    0    0    0 -0.00000000000E+00 -0.00000000000E+00 -0.45593999997E+02  0.45594000000E+02  0.51100000000E-03 0. -1.
    9900012    2    1    2    0    0 -0.29573225750E+02 -0.15667648922E+02  0.23089270482E+02  0.50528864306E+02  0.30000013543E+02 0.  0.
         12    1    1    2    0    0  0.29573225750E+02  0.15667648922E+02 -0.23089270482E+02  0.40659135694E+02  0.00000000000E+00 0. -1.
         11    1    3    3    0    0 -0.23365632915E+01 -0.18718502999E+01 -0.44000557440E+01  0.53220148790E+01  0.51100000000E-03 0. -1.
        -11    1    3    3    0    0 -0.28160310846E+02 -0.15933696180E+02  0.21678412654E+02  0.38946621886E+02  0.51100000000E-03 0.  1.
        -12    1    3    3    0    0  0.92364838740E+00  0.21378975580E+01  0.58109135723E+01  0.62602275403E+01  0.00000000000E+00 0.  1.
</event>
<event>
 7    1  0.5972636E-013  0.5052882E+02  0.7816164E-02  0.1300439E+00
        -11   -1    0    0    0    0  0.00000000000E+00  0.00000000000E+00  0.45593999997E+02  0.45594000000E+02  0.51100000000E-03 0.  1.
         11   -1    0    0    0    0 -0.00000000000E+00 -0.00000000000E+00 -0.45593999997E+02  0.45594000000E+02  0.51100000000E-03 0. -1.
    9900012    2    1    2    0    0  0.23016084086E+02 -0.31687481237E+02 -0.10923944650E+02  0.50528817021E+02  0.29999869817E+02 0.  0.
         12    1    1    2    0    0 -0.23016084086E+02  0.31687481237E+02  0.10923944650E+02  0.40659182979E+02  0.00000000000E+00 0. -1.
         11    1    3    3    0    0  0.74052105272E+00  0.50265126013E+01 -0.90279831579E-01  0.50815697447E+01  0.51100000000E-03 0. -1.
        -11    1    3    3    0    0  0.10689230049E+02 -0.17937868270E+02 -0.10520538024E+02  0.23381797999E+02  0.51100000000E-03 0.  1.
         12    1    3    3    0    0  0.11586332984E+02 -0.18776125569E+02 -0.31312679386E+00  0.22065449277E+02  0.00000000000E+00 0. -1.
</event>
<event>
 7    1  0.5972636E-013  0.5052888E+02  0.7816164E-02  0.1300439E+00
        -11   -1    0    0    0    0  0.00000000000E+00  0.00000000000E+00  0.45593999997E+02  0.45594000000E+02  0.51100000000E-03 0. -1.
         11   -1    0    0    0    0 -0.00000000000E+00 -0.00000000000E+00 -0.45593999997E+02  0.45594000000E+02  0.51100000000E-03 0.  1.
    9900012    2    1    2    0    0 -0.28495801196E+01  0.21628386163E+02 -0.34311182057E+02  0.50528875452E+02  0.30000047425E+02 0.  0.
         12    1    1    2    0    0  0.28495801196E+01 -0.21628386163E+02  0.34311182057E+02  0.40659124548E+02  0.00000000000E+00 0. -1.
         11    1    3    3    0    0  0.33594569910E+01  0.11656838608E+02 -0.75704184068E+01  0.14299617922E+02  0.51100000000E-03 0.  1.
        -11    1    3    3    0    0 -0.13443846020E+02  0.31434002783E+01 -0.11204239691E+02  0.17780690325E+02  0.51100000000E-03 0. -1.
        -12    1    3    3    0    0  0.72348089098E+01  0.68281472765E+01 -0.15536523959E+02  0.18448567205E+02  0.00000000000E+00 0.  1.
</event>
<event>
 7    1  0.5972636E-013  0.5052885E+02  0.7816164E-02  0.1300439E+00
        -11   -1    0    0    0    0  0.00000000000E+00  0.00000000000E+00  0.45593999997E+02  0.45594000000E+02  0.51100000000E-03 0. -1.
         11   -1    0    0    0    0 -0.00000000000E+00 -0.00000000000E+00 -0.45593999997E+02  0.45594000000E+02  0.51100000000E-03 0.  1.
    9900012    2    1    2    0    0  0.96371311427E+01 -0.39386117530E+02 -0.30043098969E+01  0.50528850616E+02  0.29999971931E+02 0.  0.
         12    1    1    2    0    0 -0.96371311427E+01  0.39386117530E+02  0.30043098969E+01  0.40659149384E+02  0.00000000000E+00 0. -1.
         11    1    3    3    0    0  0.12551887562E+02 -0.36072062583E+02 -0.44390358078E+00  0.38196081356E+02  0.51100000000E-03 0. -1.
        -11    1    3    3    0    0 -0.84688791961E+00  0.40808585753E+01  0.20120888871E+00  0.41726623561E+01  0.51100000000E-03 0.  1.
         12    1    3    3    0    0 -0.20678684993E+01 -0.73949135223E+01 -0.27616152048E+01  0.81601069032E+01  0.00000000000E+00 0. -1.
</event>
<event>
 7    1  0.5972636E-013  0.5052887E+02  0.7816164E-02  0.1300439E+00
        -11   -1    0    0    0    0  0.00000000000E+00  0.00000000000E+00  0.45593999997E+02  0.45594000000E+02  0.51100000000E-03 0.  1.
         11   -1    0    0    0    0 -0.00000000000E+00 -0.00000000000E+00 -0.45593999997E+02  0.45594000000E+02  0.51100000000E-03 0. -1.
    9900012    2    1    2    0    0 -0.22082876906E+02  0.30437371281E+01  0.34003639038E+02  0.50528865037E+02  0.30000015766E+02 0.  0.
         12    1    1    2    0    0  0.22082876906E+02 -0.30437371281E+01 -0.34003639038E+02  0.40659134963E+02  0.00000000000E+00 0. -1.
         11    1    3    3    0    0 -0.11121643816E+02  0.13483441883E+02  0.29067234982E+02  0.33917522256E+02  0.51100000000E-03 0. -1.
        -11    1    3    3    0    0 -0.40280838419E+00 -0.27776029984E+01  0.10850583067E+01  0.30091003309E+01  0.51100000000E-03 0.  1.
         12    1    3    3    0    0 -0.10558424705E+02 -0.76621017568E+01  0.38513457487E+01  0.13602242450E+02  0.00000000000E+00 0. -1.
</event>
<event>
 7    1  0.5972636E-013  0.5052887E+02  0.7816164E-02  0.1300439E+00
        -11   -1    0    0    0    0  0.00000000000E+00  0.00000000000E+00  0.45593999997E+02  0.45594000000E+02  0.51100000000E-03 0.  1.
         11   -1    0    0    0    0 -0.00000000000E+00 -0.00000000000E+00 -0.45593999997E+02  0.45594000000E+02  0.51100000000E-03 0. -1.
    9900012    2    1    2    0    0 -0.14644182754E+02 -0.10239382281E+02  0.36522152975E+02  0.50528871924E+02  0.30000036699E+02 0.  0.
         12    1    1    2    0    0  0.14644182754E+02  0.10239382281E+02 -0.36522152975E+02  0.40659128076E+02  0.00000000000E+00 0. -1.
         11    1    3    3    0    0  0.21051763721E+01  0.15207661938E+01  0.20676659636E+02  0.20839115896E+02  0.51100000000E-03 0.  1.
        -11    1    3    3    0    0 -0.53605405105E+01 -0.10448556720E+02  0.23392856262E+01  0.11974138365E+02  0.51100000000E-03 0. -1.
        -12    1    3    3    0    0 -0.11388818615E+02 -0.13115917551E+01  0.13506207713E+02  0.17715617663E+02  0.00000000000E+00 0.  1.
</event>
<event>
 7    1  0.5972636E-013  0.5052887E+02  0.7816164E-02  0.1300439E+00
        -11   -1    0    0    0    0  0.00000000000E+00  0.00000000000E+00  0.45593999997E+02  0.45594000000E+02  0.51100000000E-03 0.  1.
         11   -1    0    0    0    0 -0.00000000000E+00 -0.00000000000E+00 -0.45593999997E+02  0.45594000000E+02  0.51100000000E-03 0. -1.
    9900012    2    1    2    0    0  0.27017413250E+02  0.12640815031E+01  0.30358301883E+02  0.50528868012E+02  0.30000024811E+02 0.  0.
         12    1    1    2    0    0 -0.27017413250E+02 -0.12640815031E+01 -0.30358301883E+02  0.40659131988E+02  0.00000000000E+00 0. -1.
         11    1    3    3    0    0 -0.45446762643E+01  0.13408821391E+01  0.38575374506E+01  0.61100444108E+01  0.51100000000E-03 0. -1.
        -11    1    3    3    0    0  0.18594679940E+02  0.24492199361E+01  0.53889442317E+01  0.19514136429E+02  0.51100000000E-03 0.  1.
         12    1    3    3    0    0  0.12967409574E+02 -0.25260205720E+01  0.21111820200E+02  0.24904687173E+02  0.00000000000E+00 0. -1.
</event>
<event>
 7    1  0.5972636E-013  0.5052887E+02  0.7816164E-02  0.1300439E+00
        -11   -1    0    0    0    0  0.00000000000E+00  0.00000000000E+00  0.45593999997E+02  0.45594000000E+02  0.51100000000E-03 0.  1.
         11   -1    0    0    0    0 -0.00000000000E+00 -0.00000000000E+00 -0.45593999997E+02  0.45594000000E+02  0.51100000000E-03 0. -1.
    9900012    2    1    2    0    0 -0.29030275923E+00  0.20338336506E+02  0.35205576878E+02  0.50528870019E+02  0.30000030909E+02 0.  0.
         12    1    1    2    0    0  0.29030275923E+00 -0.20338336506E+02 -0.35205576878E+02  0.40659129981E+02  0.00000000000E+00 0. -1.
         11    1    3    3    0    0 -0.47968977722E+01  0.15273111294E+02  0.18822546868E+02  0.24709642403E+02  0.51100000000E-03 0.  1.
        -11    1    3    3    0    0 -0.33529645474E+01 -0.41185542764E+01 -0.18061029654E+00  0.53138950803E+01  0.51100000000E-03 0. -1.
        -12    1    3    3    0    0  0.78595595603E+01  0.91837794893E+01  0.16563640306E+02  0.20505332535E+02  0.00000000000E+00 0.  1.
</event>
<event>
 7    1  0.5972636E-013  0.5052886E+02  0.7816164E-02  0.1300439E+00
        -11   -1    0    0    0    0  0.00000000000E+00  0.00000000000E+00  0.45593999997E+02  0.45594000000E+02  0.51100000000E-03 0.  1.
         11   -1    0    0    0    0 -0.00000000000E+00 -0.00000000000E+00 -0.45593999997E+02  0.45594000000E+02  0.51100000000E-03 0. -1.
    9900012    2    1    2    0    0  0.25040245902E+02  0.15086636096E+02  0.28258547066E+02  0.50528856061E+02  0.29999988483E+02 0.  0.
         12    1    1    2    0    0 -0.25040245902E+02 -0.15086636096E+02 -0.28258547066E+02  0.40659143939E+02  0.00000000000E+00 0. -1.
         11    1    3    3    0    0  0.10473174579E+01  0.16993018862E+02  0.13944544824E+02  0.22007041930E+02  0.51100000000E-03 0. -1.
        -11    1    3    3    0    0  0.15586822534E+02 -0.18153877932E+01  0.63070166860E+01  0.16912218343E+02  0.51100000000E-03 0.  1.
         12    1    3    3    0    0  0.84061059111E+01 -0.90994972646E-01  0.80069855561E+01  0.11609595788E+02  0.00000000000E+00 0. -1.
</event>
<event>
 7    1  0.5972636E-013  0.5052885E+02  0.7816164E-02  0.1300439E+00
        -11   -1    0    0    0    0  0.00000000000E+00  0.00000000000E+00  0.45593999997E+02  0.45594000000E+02  0.51100000000E-03 0. -1.
         11   -1    0    0    0    0 -0.00000000000E+00 -0.00000000000E+00 -0.45593999997E+02  0.45594000000E+02  0.51100000000E-03 0.  1.
    9900012    2    1    2    0    0 -0.12403341629E+02  0.35088777303E+02  0.16373807143E+02  0.50528846829E+02  0.29999960422E+02 0.  0.
         12    1    1    2    0    0  0.12403341629E+02 -0.35088777303E+02 -0.16373807143E+02  0.40659153171E+02  0.00000000000E+00 0. -1.
         11    1    3    3    0    0 -0.31462058972E+00 -0.38780166152E+00  0.38513160002E+01  0.38835565450E+01  0.51100000000E-03 0. -1.
        -11    1    3    3    0    0 -0.13166410551E+02  0.29228210642E+02 -0.60951486037E+00  0.32062660101E+02  0.51100000000E-03 0.  1.
        -12    1    3    3    0    0  0.10776895119E+01  0.62483683228E+01  0.13132006003E+02  0.14582630183E+02  0.00000000000E+00 0.  1.
</event>
<event>
 7    1  0.5972636E-013  0.5052886E+02  0.7816164E-02  0.1300439E+00
        -11   -1    0    0    0    0  0.00000000000E+00  0.00000000000E+00  0.45593999997E+02  0.45594000000E+02  0.51100000000E-03 0. -1.
         11   -1    0    0    0    0 -0.00000000000E+00 -0.00000000000E+00 -0.45593999997E+02  0.45594000000E+02  0.51100000000E-03 0.  1.
    9900012    2    1    2    0    0 -0.26050285874E+02 -0.24519403723E+02 -0.19322184730E+02  0.50528863563E+02  0.30000011288E+02 0.  0.
         12    1    1    2    0    0  0.26050285874E+02  0.24519403723E+02  0.19322184730E+02  0.40659136437E+02  0.00000000000E+00 0. -1.
         11    1    3    3    0    0 -0.13763697026E+01  0.10883509843E+01  0.10333250505E+01  0.20363355187E+01  0.51100000000E-03 0. -1.
        -11    1    3    3    0    0 -0.12961554310E+02 -0.26426026801E+02 -0.21849391894E+02  0.36656959899E+02  0.51100000000E-03 0.  1.
        -12    1    3    3    0    0 -0.11712361861E+02  0.81827209302E+00  0.14938821139E+01  0.11835568146E+02  0.00000000000E+00 0.  1.
</event>
<event>
 7    1  0.5972636E-013  0.5052886E+02  0.7816164E-02  0.1300439E+00
        -11   -1    0    0    0    0  0.00000000000E+00  0.00000000000E+00  0.45593999997E+02  0.45594000000E+02  0.51100000000E-03 0.  1.
         11   -1    0    0    0    0 -0.00000000000E+00 -0.00000000000E+00 -0.45593999997E+02  0.45594000000E+02  0.51100000000E-03 0. -1.
    9900012    2    1    2    0    0 -0.17397984426E+02 -0.23512030331E+02  0.28242885117E+02  0.50528855984E+02  0.29999988248E+02 0.  0.
         12    1    1    2    0    0  0.17397984426E+02  0.23512030331E+02 -0.28242885117E+02  0.40659144016E+02  0.00000000000E+00 0. -1.
         11    1    3    3    0    0 -0.10756269613E+02 -0.27597853844E+01 -0.17721317144E+01  0.11245185744E+02  0.51100000000E-03 0. -1.
        -11    1    3    3    0    0 -0.76163341760E+01 -0.16792066267E+02  0.29990459855E+02  0.35205251290E+02  0.51100000000E-03 0.  1.
        -12    1    3    3    0    0  0.97461936245E+00 -0.39601786802E+01  0.24556976358E-01  0.40784189493E+01  0.00000000000E+00 0.  1.
</event>
<event>
 7    1  0.5972636E-013  0.5052886E+02  0.7816164E-02  0.1300439E+00
        -11   -1    0    0    0    0  0.00000000000E+00  0.00000000000E+00  0.45593999997E+02  0.45594000000E+02  0.51100000000E-03 0.  1.
         11   -1    0    0    0    0 -0.00000000000E+00 -0.00000000000E+00 -0.45593999997E+02  0.45594000000E+02  0.51100000000E-03 0. -1.
    9900012    2    1    2    0    0 -0.28984854126E+02  0.26186821879E+02  0.11282483683E+02  0.50528857769E+02  0.29999993676E+02 0.  0.
         12    1    1    2    0    0  0.28984854126E+02 -0.26186821879E+02 -0.11282483683E+02  0.40659142231E+02  0.00000000000E+00 0. -1.
         11    1    3    3    0    0 -0.79957992718E+01  0.23730173678E+02  0.52985569313E+01  0.25595481136E+02  0.51100000000E-03 0.  1.
        -11    1    3    3    0    0 -0.20380679588E+02  0.54924297362E+01  0.51534987485E+01  0.21727803259E+02  0.51100000000E-03 0. -1.
        -12    1    3    3    0    0 -0.60837526708E+00 -0.30357815344E+01  0.83042800300E+00  0.32055733744E+01  0.00000000000E+00 0.  1.
</event>
<event>
 7    1  0.5972636E-013  0.5052886E+02  0.7816164E-02  0.1300439E+00
        -11   -1    0    0    0    0  0.00000000000E+00  0.00000000000E+00  0.45593999997E+02  0.45594000000E+02  0.51100000000E-03 0. -1.
         11   -1    0    0    0    0 -0.00000000000E+00 -0.00000000000E+00 -0.45593999997E+02  0.45594000000E+02  0.51100000000E-03 0.  1.
    9900012    2    1    2    0    0  0.24878361349E+02  0.65831630520E+01 -0.31478476103E+02  0.50528863795E+02  0.30000011991E+02 0.  0.
         12    1    1    2    0    0 -0.24878361349E+02 -0.65831630520E+01  0.31478476103E+02  0.40659136205E+02  0.00000000000E+00 0. -1.
         11    1    3    3    0    0 -0.63466361976E+00  0.32288313282E+01 -0.17027297979E+02  0.17342347776E+02  0.51100000000E-03 0. -1.
        -11    1    3    3    0    0  0.19136679369E+02  0.84971940374E+01 -0.69018885700E+01  0.22046561407E+02  0.51100000000E-03 0.  1.
         12    1    3    3    0    0  0.63763456000E+01 -0.51428623136E+01 -0.75492895541E+01  0.11139954612E+02  0.00000000000E+00 0. -1.
</event>
<event>
 7    1  0.5972636E-013  0.5052886E+02  0.7816164E-02  0.1300439E+00
        -11   -1    0    0    0    0  0.00000000000E+00  0.00000000000E+00  0.45593999997E+02  0.45594000000E+02  0.51100000000E-03 0.  1.
         11   -1    0    0    0    0 -0.00000000000E+00 -0.00000000000E+00 -0.45593999997E+02  0.45594000000E+02  0.51100000000E-03 0. -1.
    9900012    2    1    2    0    0 -0.32105478075E+02 -0.24932613341E+02 -0.87692034971E+00  0.50528856874E+02  0.29999990954E+02 0.  0.
         12    1    1    2    0    0  0.32105478075E+02  0.24932613341E+02  0.87692034971E+00  0.40659143126E+02  0.00000000000E+00 0. -1.
         11    1    3    3    0    0 -0.31609377152E+02 -0.10984447341E+02  0.39798552474E+00  0.33465940896E+02  0.51100000000E-03 0. -1.
        -11    1    3    3    0    0 -0.17174292642E+01 -0.15076040283E+02 -0.38761323867E+00  0.15178497889E+02  0.51100000000E-03 0.  1.
         12    1    3    3    0    0  0.12213283406E+01  0.11278742826E+01 -0.88729263578E+00  0.18844180891E+01  0.00000000000E+00 0. -1.
</event>
<event>
 7    1  0.5972636E-013  0.5052886E+02  0.7816164E-02  0.1300439E+00
        -11   -1    0    0    0    0  0.00000000000E+00  0.00000000000E+00  0.45593999997E+02  0.45594000000E+02  0.51100000000E-03 0. -1.
         11   -1    0    0    0    0 -0.00000000000E+00 -0.00000000000E+00 -0.45593999997E+02  0.45594000000E+02  0.51100000000E-03 0.  1.
    9900012    2    1    2    0    0 -0.16658621810E+02 -0.34374206924E+02  0.13930889472E+02  0.50528862482E+02  0.30000007999E+02 0.  0.
         12    1    1    2    0    0  0.16658621810E+02  0.34374206924E+02 -0.13930889472E+02  0.40659137518E+02  0.00000000000E+00 0. -1.
         11    1    3    3    0    0 -0.29991777159E+01 -0.48956746692E+01 -0.85527586729E+01  0.10301086283E+02  0.51100000000E-03 0. -1.
        -11    1    3    3    0    0 -0.74366552002E+01 -0.23740650744E+02  0.16237333669E+02  0.29708135978E+02  0.51100000000E-03 0.  1.
        -12    1    3    3    0    0 -0.62227888935E+01 -0.57378815108E+01  0.62463144758E+01  0.10519640221E+02  0.00000000000E+00 0.  1.
</event>
<event>
 7    1  0.5972636E-013  0.5052888E+02  0.7816164E-02  0.1300439E+00
        -11   -1    0    0    0    0  0.00000000000E+00  0.00000000000E+00  0.45593999997E+02  0.45594000000E+02  0.51100000000E-03 0. -1.
         11   -1    0    0    0    0 -0.00000000000E+00 -0.00000000000E+00 -0.45593999997E+02  0.45594000000E+02  0.51100000000E-03 0.  1.
    9900012    2    1    2    0    0 -0.61021681167E+01 -0.24262677806E+02 -0.32050741135E+02  0.50528880514E+02  0.30000062812E+02 0.  0.
         12    1    1    2    0    0  0.61021681167E+01  0.24262677806E+02  0.32050741135E+02  0.40659119486E+02  0.00000000000E+00 0. -1.
         11    1    3    3    0    0 -0.12273669083E-01  0.20870368824E+01 -0.20371323090E+02  0.20477955911E+02  0.51100000000E-03 0. -1.
        -11    1    3    3    0    0 -0.54154840866E+01 -0.10530194853E+02 -0.54606770346E+01  0.13039611401E+02  0.51100000000E-03 0.  1.
        -12    1    3    3    0    0 -0.67441036101E+00 -0.15819519835E+02 -0.62187410108E+01  0.17011313203E+02  0.00000000000E+00 0.  1.
</event>
<event>
 7    1  0.5972636E-013  0.5052886E+02  0.7816164E-02  0.1300439E+00
        -11   -1    0    0    0    0  0.00000000000E+00  0.00000000000E+00  0.45593999997E+02  0.45594000000E+02  0.51100000000E-03 0.  1.
         11   -1    0    0    0    0 -0.00000000000E+00 -0.00000000000E+00 -0.45593999997E+02  0.45594000000E+02  0.51100000000E-03 0. -1.
    9900012    2    1    2    0    0  0.33425733522E+02 -0.84710537302E+00  0.23133708617E+02  0.50528859289E+02  0.29999998294E+02 0.  0.
         12    1    1    2    0    0 -0.33425733522E+02  0.84710537302E+00 -0.23133708617E+02  0.40659140711E+02  0.00000000000E+00 0. -1.
         11    1    3    3    0    0 -0.12953486196E+01 -0.23783703669E+01 -0.40765853592E+01  0.48941926913E+01  0.51100000000E-03 0. -1.
        -11    1    3    3    0    0  0.12406875230E+02  0.52420926222E+01  0.14055496453E+02  0.19467076535E+02  0.51100000000E-03 0.  1.
        -12    1    3    3    0    0  0.22314206912E+02 -0.37108276284E+01  0.13154797523E+02  0.26167590062E+02  0.00000000000E+00 0.  1.
</event>
<event>
 7    1  0.5972636E-013  0.5052886E+02  0.7816164E-02  0.1300439E+00
        -11   -1    0    0    0    0  0.00000000000E+00  0.00000000000E+00  0.45593999997E+02  0.45594000000E+02  0.51100000000E-03 0.  1.
         11   -1    0    0    0    0 -0.00000000000E+00 -0.00000000000E+00 -0.45593999997E+02  0.45594000000E+02  0.51100000000E-03 0. -1.
    9900012    2    1    2    0    0 -0.36223935917E+02 -0.10024279726E+02 -0.15508241441E+02  0.50528864864E+02  0.30000015242E+02 0.  0.
         12    1    1    2    0    0  0.36223935917E+02  0.10024279726E+02  0.15508241441E+02  0.40659135136E+02  0.00000000000E+00 0. -1.
         11    1    3    3    0    0  0.10306024117E+01 -0.62068681970E+00 -0.75181854930E+01  0.76138365380E+01  0.51100000000E-03 0. -1.
        -11    1    3    3    0    0 -0.35735377070E+02 -0.34785923889E+01 -0.55549146005E+01  0.36331458212E+02  0.51100000000E-03 0.  1.
        -12    1    3    3    0    0 -0.15191612590E+01 -0.59250005177E+01 -0.24351413478E+01  0.65835701142E+01  0.00000000000E+00 0.  1.
</event>
<event>
 7    1  0.5972636E-013  0.5052886E+02  0.7816164E-02  0.1300439E+00
        -11   -1    0    0    0    0  0.00000000000E+00  0.00000000000E+00  0.45593999997E+02  0.45594000000E+02  0.51100000000E-03 0.  1.
         11   -1    0    0    0    0 -0.00000000000E+00 -0.00000000000E+00 -0.45593999997E+02  0.45594000000E+02  0.51100000000E-03 0. -1.
    9900012    2    1    2    0    0  0.57644740691E+00 -0.40392147485E+02  0.46160183672E+01  0.50528862090E+02  0.30000006807E+02 0.  0.
         12    1    1    2    0    0 -0.57644740691E+00  0.40392147485E+02 -0.46160183672E+01  0.40659137910E+02  0.00000000000E+00 0. -1.
         11    1    3    3    0    0  0.94570868525E+01 -0.12210182434E+02  0.98275164512E+01  0.18305876834E+02  0.51100000000E-03 0. -1.
        -11    1    3    3    0    0 -0.31827117775E+01 -0.25085112095E+02 -0.36055885144E+01  0.25541980579E+02  0.51100000000E-03 0.  1.
         12    1    3    3    0    0 -0.56979276681E+01 -0.30968529552E+01 -0.16059095696E+01  0.66810046762E+01  0.00000000000E+00 0. -1.
</event>
<event>
 7    1  0.5972636E-013  0.5052887E+02  0.7816164E-02  0.1300439E+00
        -11   -1    0    0    0    0  0.00000000000E+00  0.00000000000E+00  0.45593999997E+02  0.45594000000E+02  0.51100000000E-03 0.  1.
         11   -1    0    0    0    0 -0.00000000000E+00 -0.00000000000E+00 -0.45593999997E+02  0.45594000000E+02  0.51100000000E-03 0. -1.
    9900012    2    1    2    0    0  0.77703905651E+01  0.38526072995E+02  0.10417649264E+02  0.50528872044E+02  0.30000037064E+02 0.  0.
         12    1    1    2    0    0 -0.77703905651E+01 -0.38526072995E+02 -0.10417649264E+02  0.40659127956E+02  0.00000000000E+00 0. -1.
         11    1    3    3    0    0  0.23351863129E+01  0.10210196538E+02  0.13854753168E+02  0.17368229445E+02  0.51100000000E-03 0.  1.
        -11    1    3    3    0    0 -0.64447321173E+00  0.10428471966E+02 -0.86477331208E+01  0.13562878074E+02  0.51100000000E-03 0. -1.
         12    1    3    3    0    0  0.60796774639E+01  0.17887404492E+02  0.52106292168E+01  0.19597764524E+02  0.00000000000E+00 0. -1.
</event>
<event>
 7    1  0.5972636E-013  0.5052886E+02  0.7816164E-02  0.1300439E+00
        -11   -1    0    0    0    0  0.00000000000E+00  0.00000000000E+00  0.45593999997E+02  0.45594000000E+02  0.51100000000E-03 0.  1.
         11   -1    0    0    0    0 -0.00000000000E+00 -0.00000000000E+00 -0.45593999997E+02  0.45594000000E+02  0.51100000000E-03 0. -1.
    9900012    2    1    2    0    0  0.28769240999E+02  0.95758724934E+01  0.27088726327E+02  0.50528860121E+02  0.30000000824E+02 0.  0.
         12    1    1    2    0    0 -0.28769240999E+02 -0.95758724934E+01 -0.27088726327E+02  0.40659139879E+02  0.00000000000E+00 0. -1.
         11    1    3    3    0    0 -0.35096539376E+01  0.75241610809E+01  0.92565813604E+01  0.12434426785E+02  0.51100000000E-03 0. -1.
        -11    1    3    3    0    0  0.27469566055E+02 -0.58586026830E+00  0.11689068886E+02  0.29858911956E+02  0.51100000000E-03 0.  1.
        -12    1    3    3    0    0  0.48093288813E+01  0.26375716808E+01  0.61430760810E+01  0.82355213798E+01  0.00000000000E+00 0.  1.
</event>
<event>
 7    1  0.5972636E-013  0.5052885E+02  0.7816164E-02  0.1300439E+00
        -11   -1    0    0    0    0  0.00000000000E+00  0.00000000000E+00  0.45593999997E+02  0.45594000000E+02  0.51100000000E-03 0.  1.
         11   -1    0    0    0    0 -0.00000000000E+00 -0.00000000000E+00 -0.45593999997E+02  0.45594000000E+02  0.51100000000E-03 0. -1.
    9900012    2    1    2    0    0 -0.12974455477E+02 -0.23344685559E+02  0.30657059774E+02  0.50528854009E+02  0.29999982244E+02 0.  0.
         12    1    1    2    0    0  0.12974455477E+02  0.23344685559E+02 -0.30657059774E+02  0.40659145991E+02  0.00000000000E+00 0. -1.
         11    1    3    3    0    0 -0.83400772266E+01 -0.11229036417E+02  0.66770494421E+00  0.14003355924E+02  0.51100000000E-03 0. -1.
        -11    1    3    3    0    0 -0.38097429021E+01 -0.86643762792E+01  0.31332872726E+02  0.32731246093E+02  0.51100000000E-03 0.  1.
        -12    1    3    3    0    0 -0.82463534866E+00 -0.34512728635E+01 -0.13435178963E+01  0.37942519914E+01  0.00000000000E+00 0.  1.
</event>
<event>
 7    1  0.5972636E-013  0.5052889E+02  0.7816164E-02  0.1300439E+00
        -11   -1    0    0    0    0  0.00000000000E+00  0.00000000000E+00  0.45593999997E+02  0.45594000000E+02  0.51100000000E-03 0.  1.
         11   -1    0    0    0    0 -0.00000000000E+00 -0.00000000000E+00 -0.45593999997E+02  0.45594000000E+02  0.51100000000E-03 0. -1.
    9900012    2    1    2    0    0 -0.32473518337E+02  0.18953529660E+02  0.15472479401E+02  0.50528889108E+02  0.30000088932E+02 0.  0.
         12    1    1    2    0    0  0.32473518337E+02 -0.18953529660E+02 -0.15472479401E+02  0.40659110892E+02  0.00000000000E+00 0. -1.
         11    1    3    3    0    0 -0.13471702485E+02  0.17926095624E+02  0.93994639070E+01  0.24314226168E+02  0.51100000000E-03 0. -1.
        -11    1    3    3    0    0  0.13512497387E+01 -0.22052662689E+01 -0.27696339349E+01  0.37894521461E+01  0.51100000000E-03 0.  1.
        -12    1    3    3    0    0 -0.20353065591E+02  0.32327003045E+01  0.88426494286E+01  0.22425210793E+02  0.00000000000E+00 0.  1.
</event>
<event>
 7    1  0.5972636E-013  0.5052886E+02  0.7816164E-02  0.1300439E+00
        -11   -1    0    0    0    0  0.00000000000E+00  0.00000000000E+00  0.45593999997E+02  0.45594000000E+02  0.51100000000E-03 0. -1.
         11   -1    0    0    0    0 -0.00000000000E+00 -0.00000000000E+00 -0.45593999997E+02  0.45594000000E+02  0.51100000000E-03 0.  1.
    9900012    2    1    2    0    0  0.30240562497E+02 -0.25897839799E+02 -0.82447402130E+01  0.50528862435E+02  0.30000007857E+02 0.  0.
         12    1    1    2    0    0 -0.30240562497E+02  0.25897839799E+02  0.82447402130E+01  0.40659137565E+02  0.00000000000E+00 0. -1.
         11    1    3    3    0    0  0.89012470881E+01 -0.11702737213E+02 -0.14673599761E+02  0.20772597050E+02  0.51100000000E-03 0.  1.
        -11    1    3    3    0    0  0.68352893139E+01  0.10390893791E+01  0.52638549725E+01  0.86895947072E+01  0.51100000000E-03 0. -1.
         12    1    3    3    0    0  0.14504026095E+02 -0.15234191964E+02  0.11650045756E+01  0.21066670677E+02  0.00000000000E+00 0. -1.
</event>
<event>
 7    1  0.5972636E-013  0.5052886E+02  0.7816164E-02  0.1300439E+00
        -11   -1    0    0    0    0  0.00000000000E+00  0.00000000000E+00  0.45593999997E+02  0.45594000000E+02  0.51100000000E-03 0.  1.
         11   -1    0    0    0    0 -0.00000000000E+00 -0.00000000000E+00 -0.45593999997E+02  0.45594000000E+02  0.51100000000E-03 0. -1.
    9900012    2    1    2    0    0 -0.14634685680E+02 -0.36297947438E+02 -0.11020475688E+02  0.50528857147E+02  0.29999991784E+02 0.  0.
         12    1    1    2    0    0  0.14634685680E+02  0.36297947438E+02  0.11020475688E+02  0.40659142853E+02  0.00000000000E+00 0. -1.
         11    1    3    3    0    0  0.13395038290E+01  0.12846031843E+00 -0.24796999889E+00  0.13683062313E+01  0.51100000000E-03 0. -1.
        -11    1    3    3    0    0  0.56440584141E+01 -0.19609306904E+02 -0.25518140749E+01  0.20564339716E+02  0.51100000000E-03 0.  1.
        -12    1    3    3    0    0 -0.21618247923E+02 -0.16817100852E+02 -0.82206916146E+01  0.28596211199E+02  0.00000000000E+00 0.  1.
</event>
<event>
 7    1  0.5972636E-013  0.5052886E+02  0.7816164E-02  0.1300439E+00
        -11   -1    0    0    0    0  0.00000000000E+00  0.00000000000E+00  0.45593999997E+02  0.45594000000E+02  0.51100000000E-03 0.  1.
         11   -1    0    0    0    0 -0.00000000000E+00 -0.00000000000E+00 -0.45593999997E+02  0.45594000000E+02  0.51100000000E-03 0. -1.
    9900012    2    1    2    0    0  0.25485269550E+02  0.23473061821E+02  0.21276331165E+02  0.50528857570E+02  0.29999993069E+02 0.  0.
         12    1    1    2    0    0 -0.25485269550E+02 -0.23473061821E+02 -0.21276331165E+02  0.40659142430E+02  0.00000000000E+00 0. -1.
         11    1    3    3    0    0  0.34654761202E+01 -0.60877370665E+01  0.79821454161E+01  0.10620014738E+02  0.51100000000E-03 0. -1.
        -11    1    3    3    0    0  0.17115617150E+02  0.16924924283E+02  0.88054728697E+01  0.25630719169E+02  0.51100000000E-03 0.  1.
         12    1    3    3    0    0  0.49041762800E+01  0.12635874605E+02  0.44887128794E+01  0.14278123663E+02  0.00000000000E+00 0. -1.
</event>
<event>
 7    1  0.5972636E-013  0.5052887E+02  0.7816164E-02  0.1300439E+00
        -11   -1    0    0    0    0  0.00000000000E+00  0.00000000000E+00  0.45593999997E+02  0.45594000000E+02  0.51100000000E-03 0. -1.
         11   -1    0    0    0    0 -0.00000000000E+00 -0.00000000000E+00 -0.45593999997E+02  0.45594000000E+02  0.51100000000E-03 0.  1.
    9900012    2    1    2    0    0 -0.22163949644E+02 -0.23147634316E+02  0.25022219859E+02  0.50528866648E+02  0.30000020664E+02 0.  0.
         12    1    1    2    0    0  0.22163949644E+02  0.23147634316E+02 -0.25022219859E+02  0.40659133352E+02  0.00000000000E+00 0. -1.
         11    1    3    3    0    0 -0.96937727960E+01 -0.11876248432E+01  0.50337056932E+01  0.10987168746E+02  0.51100000000E-03 0. -1.
        -11    1    3    3    0    0 -0.97752663687E+01 -0.21077289632E+02  0.24783437058E+02  0.33970968834E+02  0.51100000000E-03 0.  1.
        -12    1    3    3    0    0 -0.26949104792E+01 -0.88271984082E+00 -0.47949228925E+01  0.55707290684E+01  0.00000000000E+00 0.  1.
</event>
<event>
 7    1  0.5972636E-013  0.5052887E+02  0.7816164E-02  0.1300439E+00
        -11   -1    0    0    0    0  0.00000000000E+00  0.00000000000E+00  0.45593999997E+02  0.45594000000E+02  0.51100000000E-03 0.  1.
         11   -1    0    0    0    0 -0.00000000000E+00 -0.00000000000E+00 -0.45593999997E+02  0.45594000000E+02  0.51100000000E-03 0. -1.
    9900012    2    1    2    0    0  0.13506878536E+02  0.37773629310E+02  0.66243307691E+01  0.50528873138E+02  0.30000040391E+02 0.  0.
         12    1    1    2    0    0 -0.13506878536E+02 -0.37773629310E+02 -0.66243307691E+01  0.40659126862E+02  0.00000000000E+00 0. -1.
         11    1    3    3    0    0  0.12591168824E+02  0.35421499087E+01  0.51656242995E+01  0.14063002275E+02  0.51100000000E-03 0. -1.
        -11    1    3    3    0    0 -0.54120374981E+01  0.14707850799E+02  0.27088624823E+01  0.15904369249E+02  0.51100000000E-03 0.  1.
         12    1    3    3    0    0  0.63277472101E+01  0.19523628603E+02 -0.12501560127E+01  0.20561501614E+02  0.00000000000E+00 0. -1.
</event>
<event>
 7    1  0.5972636E-013  0.5052886E+02  0.7816164E-02  0.1300439E+00
        -11   -1    0    0    0    0  0.00000000000E+00  0.00000000000E+00  0.45593999997E+02  0.45594000000E+02  0.51100000000E-03 0.  1.
         11   -1    0    0    0    0 -0.00000000000E+00 -0.00000000000E+00 -0.45593999997E+02  0.45594000000E+02  0.51100000000E-03 0. -1.
    9900012    2    1    2    0    0 -0.22021489027E+02  0.97772190808E+01  0.32750969189E+02  0.50528856198E+02  0.29999988898E+02 0.  0.
         12    1    1    2    0    0  0.22021489027E+02 -0.97772190808E+01 -0.32750969189E+02  0.40659143802E+02  0.00000000000E+00 0. -1.
         11    1    3    3    0    0  0.78742600644E+00 -0.17325701201E+01  0.41514022312E+00  0.19478656531E+01  0.51100000000E-03 0. -1.
        -11    1    3    3    0    0 -0.22137071387E+02  0.80620755352E+01  0.93801341098E+01  0.25358113252E+02  0.51100000000E-03 0.  1.
        -12    1    3    3    0    0 -0.67184364641E+00  0.34477136657E+01  0.22955694857E+02  0.23222877293E+02  0.00000000000E+00 0.  1.
</event>
<event>
 7    1  0.5972636E-013  0.5052886E+02  0.7816164E-02  0.1300439E+00
        -11   -1    0    0    0    0  0.00000000000E+00  0.00000000000E+00  0.45593999997E+02  0.45594000000E+02  0.51100000000E-03 0. -1.
         11   -1    0    0    0    0 -0.00000000000E+00 -0.00000000000E+00 -0.45593999997E+02  0.45594000000E+02  0.51100000000E-03 0.  1.
    9900012    2    1    2    0    0  0.22893729453E+02 -0.33533564178E+02 -0.21313445702E+01  0.50528863211E+02  0.30000010215E+02 0.  0.
         12    1    1    2    0    0 -0.22893729453E+02  0.33533564178E+02  0.21313445702E+01  0.40659136789E+02  0.00000000000E+00 0. -1.
         11    1    3    3    0    0  0.67120416672E+01 -0.90572588319E+01  0.12039382833E+02  0.16493398078E+02  0.51100000000E-03 0. -1.
        -11    1    3    3    0    0  0.15653098260E+02 -0.20470978445E+02 -0.86262989664E+01  0.27175236481E+02  0.51100000000E-03 0.  1.
        -12    1    3    3    0    0  0.52858952570E+00 -0.40053269011E+01 -0.55444284369E+01  0.68602286524E+01  0.00000000000E+00 0.  1.
</event>
<event>
 7    1  0.5972636E-013  0.5052893E+02  0.7816164E-02  0.1300439E+00
        -11   -1    0    0    0    0  0.00000000000E+00  0.00000000000E+00  0.45593999997E+02  0.45594000000E+02  0.51100000000E-03 0.  1.
         11   -1    0    0    0    0 -0.00000000000E+00 -0.00000000000E+00 -0.45593999997E+02  0.45594000000E+02  0.51100000000E-03 0. -1.
    9900012    2    1    2    0    0  0.11228463422E+02 -0.19185198784E+02  0.34044236713E+02  0.50528926025E+02  0.30000201143E+02 0.  0.
         12    1    1    2    0    0 -0.11228463422E+02  0.19185198784E+02 -0.34044236713E+02  0.40659073975E+02  0.00000000000E+00 0. -1.
         11    1    3    3    0    0  0.23508027813E+01  0.71110865346E+00 -0.29714887807E+01  0.38550869081E+01  0.51100000000E-03 0. -1.
        -11    1    3    3    0    0  0.21136862551E+01 -0.21382960580E+02  0.28689187819E+02  0.35843662909E+02  0.51100000000E-03 0.  1.
         12    1    3    3    0    0  0.67639743855E+01  0.14866531419E+01  0.83265376741E+01  0.10830176208E+02  0.00000000000E+00 0. -1.
</event>
<event>
 7    1  0.5972636E-013  0.5052886E+02  0.7816164E-02  0.1300439E+00
        -11   -1    0    0    0    0  0.00000000000E+00  0.00000000000E+00  0.45593999997E+02  0.45594000000E+02  0.51100000000E-03 0.  1.
         11   -1    0    0    0    0 -0.00000000000E+00 -0.00000000000E+00 -0.45593999997E+02  0.45594000000E+02  0.51100000000E-03 0. -1.
    9900012    2    1    2    0    0  0.13613745146E+02  0.31502167823E+01  0.38182555602E+02  0.50528862344E+02  0.30000007580E+02 0.  0.
         12    1    1    2    0    0 -0.13613745146E+02 -0.31502167823E+01 -0.38182555602E+02  0.40659137656E+02  0.00000000000E+00 0. -1.
         11    1    3    3    0    0  0.11075902593E+02 -0.49845893091E+01  0.10052048639E+02  0.15765957977E+02  0.51100000000E-03 0. -1.
        -11    1    3    3    0    0  0.23334074084E+01  0.13537138462E+02  0.24974125230E+02  0.28502733889E+02  0.51100000000E-03 0.  1.
        -12    1    3    3    0    0  0.20443514508E+00 -0.54023323705E+01  0.31563817322E+01  0.62601704777E+01  0.00000000000E+00 0.  1.
</event>
<event>
 7    1  0.5972636E-013  0.5052884E+02  0.7816164E-02  0.1300439E+00
        -11   -1    0    0    0    0  0.00000000000E+00  0.00000000000E+00  0.45593999997E+02  0.45594000000E+02  0.51100000000E-03 0.  1.
         11   -1    0    0    0    0 -0.00000000000E+00 -0.00000000000E+00 -0.45593999997E+02  0.45594000000E+02  0.51100000000E-03 0. -1.
    9900012    2    1    2    0    0  0.29837734062E+02  0.17296005069E+02  0.21534270462E+02  0.50528843963E+02  0.29999951710E+02 0.  0.
         12    1    1    2    0    0 -0.29837734062E+02 -0.17296005069E+02 -0.21534270462E+02  0.40659156037E+02  0.00000000000E+00 0. -1.
         11    1    3    3    0    0 -0.28153408064E+01 -0.16046063513E+01  0.17084115136E+01  0.36632738854E+01  0.51100000000E-03 0. -1.
        -11    1    3    3    0    0  0.30103467183E+02  0.20146231100E+02  0.22763198040E+02  0.42781450995E+02  0.51100000000E-03 0.  1.
        -12    1    3    3    0    0  0.25496076860E+01 -0.12456196797E+01 -0.29373390919E+01  0.40841190824E+01  0.00000000000E+00 0.  1.
</event>
<event>
 7    1  0.5972636E-013  0.5052884E+02  0.7816164E-02  0.1300439E+00
        -11   -1    0    0    0    0  0.00000000000E+00  0.00000000000E+00  0.45593999997E+02  0.45594000000E+02  0.51100000000E-03 0. -1.
         11   -1    0    0    0    0 -0.00000000000E+00 -0.00000000000E+00 -0.45593999997E+02  0.45594000000E+02  0.51100000000E-03 0.  1.
    9900012    2    1    2    0    0  0.15360489361E+02 -0.29374059601E+02  0.23545423298E+02  0.50528843970E+02  0.29999951730E+02 0.  0.
         12    1    1    2    0    0 -0.15360489361E+02  0.29374059601E+02 -0.23545423298E+02  0.40659156030E+02  0.00000000000E+00 0. -1.
         11    1    3    3    0    0  0.87241356718E+01 -0.13827769511E+01  0.14107990704E+02  0.16645059846E+02  0.51100000000E-03 0. -1.
        -11    1    3    3    0    0 -0.19315432902E+01 -0.21184731454E+02  0.84763435504E+01  0.22899172616E+02  0.51100000000E-03 0.  1.
        -12    1    3    3    0    0  0.85678969793E+01 -0.68065511961E+01  0.96108904383E+00  0.10984611508E+02  0.00000000000E+00 0.  1.
</event>
<event>
 7    1  0.5972636E-013  0.5052886E+02  0.7816164E-02  0.1300439E+00
        -11   -1    0    0    0    0  0.00000000000E+00  0.00000000000E+00  0.45593999997E+02  0.45594000000E+02  0.51100000000E-03 0.  1.
         11   -1    0    0    0    0 -0.00000000000E+00 -0.00000000000E+00 -0.45593999997E+02  0.45594000000E+02  0.51100000000E-03 0. -1.
    9900012    2    1    2    0    0 -0.32843849716E+02 -0.93006116376E+01 -0.22089503167E+02  0.50528855995E+02  0.29999988283E+02 0.  0.
         12    1    1    2    0    0  0.32843849716E+02  0.93006116376E+01  0.22089503167E+02  0.40659144005E+02  0.00000000000E+00 0. -1.
         11    1    3    3    0    0  0.12383553501E+01 -0.51216535784E+01  0.38967809722E+01  0.65536067594E+01  0.51100000000E-03 0. -1.
        -11    1    3    3    0    0 -0.18043506126E+02 -0.63961505051E+01 -0.16021666689E+02  0.24963426415E+02  0.51100000000E-03 0.  1.
         12    1    3    3    0    0 -0.16038698941E+02  0.22171924459E+01 -0.99646174506E+01  0.19011822821E+02  0.00000000000E+00 0. -1.
</event>
<event>
 7    1  0.5972636E-013  0.5052885E+02  0.7816164E-02  0.1300439E+00
        -11   -1    0    0    0    0  0.00000000000E+00  0.00000000000E+00  0.45593999997E+02  0.45594000000E+02  0.51100000000E-03 0.  1.
         11   -1    0    0    0    0 -0.00000000000E+00 -0.00000000000E+00 -0.45593999997E+02  0.45594000000E+02  0.51100000000E-03 0. -1.
    9900012    2    1    2    0    0  0.40521670497E+01 -0.33485737290E+02  0.22703557877E+02  0.50528853429E+02  0.29999980483E+02 0.  0.
         12    1    1    2    0    0 -0.40521670497E+01  0.33485737290E+02 -0.22703557877E+02  0.40659146571E+02  0.00000000000E+00 0. -1.
         11    1    3    3    0    0 -0.39594768468E+01  0.12267148898E+01  0.92641310762E+01  0.10149207416E+02  0.51100000000E-03 0. -1.
        -11    1    3    3    0    0  0.11091550149E+02 -0.18867052689E+02  0.87522089015E+01  0.23570942340E+02  0.51100000000E-03 0.  1.
        -12    1    3    3    0    0 -0.30799062524E+01 -0.15845399490E+02  0.46872178989E+01  0.16808703673E+02  0.00000000000E+00 0.  1.
</event>
<event>
 7    1  0.5972636E-013  0.5052888E+02  0.7816164E-02  0.1300439E+00
        -11   -1    0    0    0    0  0.00000000000E+00  0.00000000000E+00  0.45593999997E+02  0.45594000000E+02  0.51100000000E-03 0.  1.
         11   -1    0    0    0    0 -0.00000000000E+00 -0.00000000000E+00 -0.45593999997E+02  0.45594000000E+02  0.51100000000E-03 0. -1.
    9900012    2    1    2    0    0 -0.10018696910E+02  0.38032506137E+02  0.10311078395E+02  0.50528878656E+02  0.30000057162E+02 0.  0.
         12    1    1    2    0    0  0.10018696910E+02 -0.38032506137E+02 -0.10311078395E+02  0.40659121344E+02  0.00000000000E+00 0. -1.
         11    1    3    3    0    0 -0.15396394335E+02  0.10620575189E+02  0.52358698235E+01  0.19423179681E+02  0.51100000000E-03 0. -1.
        -11    1    3    3    0    0 -0.33749746806E+00  0.22598862671E+02  0.64602253571E+01  0.23506531231E+02  0.51100000000E-03 0.  1.
         12    1    3    3    0    0  0.57151948933E+01  0.48130682764E+01 -0.13850167852E+01  0.75991677437E+01  0.00000000000E+00 0. -1.
</event>
<event>
 7    1  0.5972636E-013  0.5052885E+02  0.7816164E-02  0.1300439E+00
        -11   -1    0    0    0    0  0.00000000000E+00  0.00000000000E+00  0.45593999997E+02  0.45594000000E+02  0.51100000000E-03 0. -1.
         11   -1    0    0    0    0 -0.00000000000E+00 -0.00000000000E+00 -0.45593999997E+02  0.45594000000E+02  0.51100000000E-03 0.  1.
    9900012    2    1    2    0    0 -0.11003491301E+02 -0.56515806256E+01 -0.38731762302E+02  0.50528848566E+02  0.29999965700E+02 0.  0.
         12    1    1    2    0    0  0.11003491301E+02  0.56515806256E+01  0.38731762302E+02  0.40659151434E+02  0.00000000000E+00 0. -1.
         11    1    3    3    0    0 -0.79549634793E+01  0.38631230169E+01 -0.13739050104E+01  0.89494568908E+01  0.51100000000E-03 0. -1.
        -11    1    3    3    0    0 -0.72024496591E+01 -0.54656218133E+01 -0.33285876719E+02  0.34491997508E+02  0.51100000000E-03 0.  1.
        -12    1    3    3    0    0  0.41539218375E+01 -0.40490818292E+01 -0.40719805724E+01  0.70873941667E+01  0.00000000000E+00 0.  1.
</event>
<event>
 7    1  0.5972636E-013  0.5052887E+02  0.7816164E-02  0.1300439E+00
        -11   -1    0    0    0    0  0.00000000000E+00  0.00000000000E+00  0.45593999997E+02  0.45594000000E+02  0.51100000000E-03 0.  1.
         11   -1    0    0    0    0 -0.00000000000E+00 -0.00000000000E+00 -0.45593999997E+02  0.45594000000E+02  0.51100000000E-03 0. -1.
    9900012    2    1    2    0    0  0.26376947444E+02 -0.20947406584E+01  0.30871246933E+02  0.50528865945E+02  0.30000018526E+02 0.  0.
         12    1    1    2    0    0 -0.26376947444E+02  0.20947406584E+01 -0.30871246933E+02  0.40659134055E+02  0.00000000000E+00 0. -1.
         11    1    3    3    0    0  0.17806146875E+01 -0.57237805202E+01  0.15127402682E+02  0.16271772008E+02  0.51100000000E-03 0. -1.
        -11    1    3    3    0    0  0.17361252498E+02  0.35030584268E+01  0.88890924934E+00  0.17733433581E+02  0.51100000000E-03 0.  1.
        -12    1    3    3    0    0  0.72350802582E+01  0.12598143500E+00  0.14854935002E+02  0.16523660357E+02  0.00000000000E+00 0.  1.
</event>
<event>
 7    1  0.5972636E-013  0.5052888E+02  0.7816164E-02  0.1300439E+00
        -11   -1    0    0    0    0  0.00000000000E+00  0.00000000000E+00  0.45593999997E+02  0.45594000000E+02  0.51100000000E-03 0.  1.
         11   -1    0    0    0    0 -0.00000000000E+00 -0.00000000000E+00 -0.45593999997E+02  0.45594000000E+02  0.51100000000E-03 0. -1.
    9900012    2    1    2    0    0 -0.70094504101E+01  0.43572317952E+01  0.39812641665E+02  0.50528876789E+02  0.30000051487E+02 0.  0.
         12    1    1    2    0    0  0.70094504101E+01 -0.43572317952E+01 -0.39812641665E+02  0.40659123211E+02  0.00000000000E+00 0. -1.
         11    1    3    3    0    0 -0.45504272157E+01 -0.80821263981E+01  0.24683181782E+01  0.95979034091E+01  0.51100000000E-03 0. -1.
        -11    1    3    3    0    0  0.19084028751E+01  0.12166443043E+02  0.29063339593E+02  0.31564886289E+02  0.51100000000E-03 0.  1.
        -12    1    3    3    0    0 -0.43674260696E+01  0.27291515076E+00  0.82809838933E+01  0.93660870909E+01  0.00000000000E+00 0.  1.
</event>
<event>
 7    1  0.5972636E-013  0.5052886E+02  0.7816164E-02  0.1300439E+00
        -11   -1    0    0    0    0  0.00000000000E+00  0.00000000000E+00  0.45593999997E+02  0.45594000000E+02  0.51100000000E-03 0.  1.
         11   -1    0    0    0    0 -0.00000000000E+00 -0.00000000000E+00 -0.45593999997E+02  0.45594000000E+02  0.51100000000E-03 0. -1.
    9900012    2    1    2    0    0 -0.13040975370E+02  0.13563111702E+02  0.36043593314E+02  0.50528860110E+02  0.30000000789E+02 0.  0.
         12    1    1    2    0    0  0.13040975370E+02 -0.13563111702E+02 -0.36043593314E+02  0.40659139890E+02  0.00000000000E+00 0. -1.
         11    1    3    3    0    0  0.68254431854E+00 -0.28695408635E-01 -0.22876775799E-01  0.68353038062E+00  0.51100000000E-03 0. -1.
        -11    1    3    3    0    0 -0.57952862165E+00  0.66948639460E+01 -0.35067283466E+01  0.75798549218E+01  0.51100000000E-03 0.  1.
        -12    1    3    3    0    0 -0.13143991067E+02  0.68969431648E+01  0.39573198436E+02  0.42265474807E+02  0.00000000000E+00 0.  1.
</event>
<event>
 7    1  0.5972636E-013  0.5052886E+02  0.7816164E-02  0.1300439E+00
        -11   -1    0    0    0    0  0.00000000000E+00  0.00000000000E+00  0.45593999997E+02  0.45594000000E+02  0.51100000000E-03 0.  1.
         11   -1    0    0    0    0 -0.00000000000E+00 -0.00000000000E+00 -0.45593999997E+02  0.45594000000E+02  0.51100000000E-03 0. -1.
    9900012    2    1    2    0    0  0.30432024202E+02  0.24658775207E+02  0.10908825416E+02  0.50528858793E+02  0.29999996787E+02 0.  0.
         12    1    1    2    0    0 -0.30432024202E+02 -0.24658775207E+02 -0.10908825416E+02  0.40659141207E+02  0.00000000000E+00 0. -1.
         11    1    3    3    0    0  0.15038404303E+02  0.89890006917E+01 -0.71210817146E+01  0.18912047549E+02  0.51100000000E-03 0. -1.
        -11    1    3    3    0    0  0.16764132512E+02  0.13733429201E+02  0.19216723892E+02  0.28964214022E+02  0.51100000000E-03 0.  1.
        -12    1    3    3    0    0 -0.13705126131E+01  0.19363453145E+01 -0.11868167616E+01  0.26525972226E+01  0.00000000000E+00 0.  1.
</event>
<event>
 7    1  0.5972636E-013  0.5052887E+02  0.7816164E-02  0.1300439E+00
        -11   -1    0    0    0    0  0.00000000000E+00  0.00000000000E+00  0.45593999997E+02  0.45594000000E+02  0.51100000000E-03 0. -1.
         11   -1    0    0    0    0 -0.00000000000E+00 -0.00000000000E+00 -0.45593999997E+02  0.45594000000E+02  0.51100000000E-03 0.  1.
    9900012    2    1    2    0    0 -0.25758198622E+02 -0.17832516265E+02 -0.25916822991E+02  0.50528866382E+02  0.30000019855E+02 0.  0.
         12    1    1    2    0    0  0.25758198622E+02  0.17832516265E+02  0.25916822991E+02  0.40659133618E+02  0.00000000000E+00 0. -1.
         11    1    3    3    0    0 -0.13988260360E+02 -0.75332414173E+01  0.16499574278E+01  0.15973212386E+02  0.51100000000E-03 0. -1.
        -11    1    3    3    0    0  0.24303186549E+01 -0.49139081162E+01 -0.54806910867E+01  0.77518331244E+01  0.51100000000E-03 0.  1.
        -12    1    3    3    0    0 -0.14200256917E+02 -0.53853667311E+01 -0.22086089332E+02  0.26803820872E+02  0.00000000000E+00 0.  1.
</event>
<event>
 7    1  0.5972636E-013  0.5052886E+02  0.7816164E-02  0.1300439E+00
        -11   -1    0    0    0    0  0.00000000000E+00  0.00000000000E+00  0.45593999997E+02  0.45594000000E+02  0.51100000000E-03 0. -1.
         11   -1    0    0    0    0 -0.00000000000E+00 -0.00000000000E+00 -0.45593999997E+02  0.45594000000E+02  0.51100000000E-03 0.  1.
    9900012    2    1    2    0    0 -0.99716226331E+01  0.83413834749E+01 -0.38524713747E+02  0.50528861968E+02  0.30000006437E+02 0.  0.
         12    1    1    2    0    0  0.99716226331E+01 -0.83413834749E+01  0.38524713747E+02  0.40659138032E+02  0.00000000000E+00 0. -1.
         11    1    3    3    0    0 -0.13785985514E+01 -0.60073120660E+01 -0.37741263855E+00  0.61750119664E+01  0.51100000000E-03 0. -1.
        -11    1    3    3    0    0 -0.85646246866E+01  0.16067967911E+02 -0.24116993037E+02  0.30218566184E+02  0.51100000000E-03 0.  1.
         12    1    3    3    0    0 -0.28399395060E-01 -0.17192723703E+01 -0.14030308072E+02  0.14135283818E+02  0.00000000000E+00 0. -1.
</event>
<event>
 7    1  0.5972636E-013  0.5052886E+02  0.7816164E-02  0.1300439E+00
        -11   -1    0    0    0    0  0.00000000000E+00  0.00000000000E+00  0.45593999997E+02  0.45594000000E+02  0.51100000000E-03 0.  1.
         11   -1    0    0    0    0 -0.00000000000E+00 -0.00000000000E+00 -0.45593999997E+02  0.45594000000E+02  0.51100000000E-03 0. -1.
    9900012    2    1    2    0    0 -0.14009060352E+02  0.19101916825E+02  0.33045852591E+02  0.50528863612E+02  0.30000011436E+02 0.  0.
         12    1    1    2    0    0  0.14009060352E+02 -0.19101916825E+02 -0.33045852591E+02  0.40659136388E+02  0.00000000000E+00 0. -1.
         11    1    3    3    0    0 -0.38570068743E+01 -0.50718860900E+01  0.32289985463E+01  0.71433159255E+01  0.51100000000E-03 0. -1.
        -11    1    3    3    0    0 -0.31172374455E+01  0.24172450674E+02  0.21579058626E+02  0.32552731257E+02  0.51100000000E-03 0.  1.
        -12    1    3    3    0    0 -0.70348160322E+01  0.13522413526E-02  0.82377954188E+01  0.10832816430E+02  0.00000000000E+00 0.  1.
</event>
<event>
 7    1  0.5972636E-013  0.5052884E+02  0.7816164E-02  0.1300439E+00
        -11   -1    0    0    0    0  0.00000000000E+00  0.00000000000E+00  0.45593999997E+02  0.45594000000E+02  0.51100000000E-03 0.  1.
         11   -1    0    0    0    0 -0.00000000000E+00 -0.00000000000E+00 -0.45593999997E+02  0.45594000000E+02  0.51100000000E-03 0. -1.
    9900012    2    1    2    0    0 -0.32026882721E+02  0.24628070701E+02  0.45720884484E+01  0.50528842654E+02  0.29999947731E+02 0.  0.
         12    1    1    2    0    0  0.32026882721E+02 -0.24628070701E+02 -0.45720884484E+01  0.40659157346E+02  0.00000000000E+00 0. -1.
         11    1    3    3    0    0 -0.57523231714E+01  0.12601254419E+02 -0.32041470664E+01  0.14217854742E+02  0.51100000000E-03 0. -1.
        -11    1    3    3    0    0 -0.24319458679E+02  0.14352825456E+02  0.12348737407E+02  0.30820950421E+02  0.51100000000E-03 0.  1.
        -12    1    3    3    0    0 -0.19551008705E+01 -0.23260091737E+01 -0.45725018925E+01  0.54900374905E+01  0.00000000000E+00 0.  1.
</event>
<event>
 7    1  0.5972636E-013  0.5052885E+02  0.7816164E-02  0.1300439E+00
        -11   -1    0    0    0    0  0.00000000000E+00  0.00000000000E+00  0.45593999997E+02  0.45594000000E+02  0.51100000000E-03 0.  1.
         11   -1    0    0    0    0 -0.00000000000E+00 -0.00000000000E+00 -0.45593999997E+02  0.45594000000E+02  0.51100000000E-03 0. -1.
    9900012    2    1    2    0    0  0.54741262339E+01 -0.39761094793E+02  0.65004344514E+01  0.50528851396E+02  0.29999974303E+02 0.  0.
         12    1    1    2    0    0 -0.54741262339E+01  0.39761094793E+02 -0.65004344514E+01  0.40659148604E+02  0.00000000000E+00 0. -1.
         11    1    3    3    0    0 -0.19064694975E+01  0.10799553911E+00 -0.19673954024E+01  0.27417027395E+01  0.51100000000E-03 0. -1.
        -11    1    3    3    0    0 -0.13472863228E+01 -0.38083232210E+02  0.73369888199E+01  0.38806947332E+02  0.51100000000E-03 0.  1.
        -12    1    3    3    0    0  0.87278820541E+01 -0.17858581217E+01  0.11308410340E+01  0.89802013243E+01  0.00000000000E+00 0.  1.
</event>
<event>
 7    1  0.5972636E-013  0.5052886E+02  0.7816164E-02  0.1300439E+00
        -11   -1    0    0    0    0  0.00000000000E+00  0.00000000000E+00  0.45593999997E+02  0.45594000000E+02  0.51100000000E-03 0. -1.
         11   -1    0    0    0    0 -0.00000000000E+00 -0.00000000000E+00 -0.45593999997E+02  0.45594000000E+02  0.51100000000E-03 0.  1.
    9900012    2    1    2    0    0 -0.33908040780E+02 -0.22434897980E+02  0.29330837267E+00  0.50528857035E+02  0.29999991443E+02 0.  0.
         12    1    1    2    0    0  0.33908040780E+02  0.22434897980E+02 -0.29330837267E+00  0.40659142965E+02  0.00000000000E+00 0. -1.
         11    1    3    3    0    0 -0.88304613091E+01 -0.17219556762E+02 -0.71028990330E+01  0.20614105776E+02  0.51100000000E-03 0. -1.
        -11    1    3    3    0    0 -0.25519194831E+02 -0.75272496714E+01  0.71371606867E+01  0.27546830223E+02  0.51100000000E-03 0.  1.
        -12    1    3    3    0    0  0.44161536041E+00  0.23119084540E+01  0.25904671900E+00  0.23679210352E+01  0.00000000000E+00 0.  1.
</event>
<event>
 7    1  0.5972636E-013  0.5052887E+02  0.7816164E-02  0.1300439E+00
        -11   -1    0    0    0    0  0.00000000000E+00  0.00000000000E+00  0.45593999997E+02  0.45594000000E+02  0.51100000000E-03 0. -1.
         11   -1    0    0    0    0 -0.00000000000E+00 -0.00000000000E+00 -0.45593999997E+02  0.45594000000E+02  0.51100000000E-03 0.  1.
    9900012    2    1    2    0    0 -0.13543518505E+02  0.26802450497E+02 -0.27411064567E+02  0.50528871789E+02  0.30000036290E+02 0.  0.
         12    1    1    2    0    0  0.13543518505E+02 -0.26802450497E+02  0.27411064567E+02  0.40659128211E+02  0.00000000000E+00 0. -1.
         11    1    3    3    0    0 -0.34307353202E+01  0.89412918078E+00 -0.96844372612E+01  0.10312988760E+02  0.51100000000E-03 0. -1.
        -11    1    3    3    0    0 -0.50536017436E+01  0.11509066551E+02  0.44160799734E+01  0.13322885050E+02  0.51100000000E-03 0.  1.
        -12    1    3    3    0    0 -0.50591814415E+01  0.14399254765E+02 -0.22142707280E+02  0.26892997980E+02  0.00000000000E+00 0.  1.
</event>
<event>
 7    1  0.5972636E-013  0.5052887E+02  0.7816164E-02  0.1300439E+00
        -11   -1    0    0    0    0  0.00000000000E+00  0.00000000000E+00  0.45593999997E+02  0.45594000000E+02  0.51100000000E-03 0.  1.
         11   -1    0    0    0    0 -0.00000000000E+00 -0.00000000000E+00 -0.45593999997E+02  0.45594000000E+02  0.51100000000E-03 0. -1.
    9900012    2    1    2    0    0 -0.99165522161E+01 -0.38491217136E+02  0.85588004365E+01  0.50528869791E+02  0.30000030215E+02 0.  0.
         12    1    1    2    0    0  0.99165522161E+01  0.38491217136E+02 -0.85588004365E+01  0.40659130209E+02  0.00000000000E+00 0. -1.
         11    1    3    3    0    0 -0.95305532843E+01 -0.27039522411E+02 -0.41016041158E+01  0.28961877955E+02  0.51100000000E-03 0. -1.
        -11    1    3    3    0    0 -0.46123051457E+01 -0.11247979061E+02  0.12341964958E+02  0.17323812831E+02  0.51100000000E-03 0.  1.
         12    1    3    3    0    0  0.42263062139E+01 -0.20371566430E+00  0.31843959391E+00  0.42431790041E+01  0.00000000000E+00 0. -1.
</event>
<event>
 7    1  0.5972636E-013  0.5052887E+02  0.7816164E-02  0.1300439E+00
        -11   -1    0    0    0    0  0.00000000000E+00  0.00000000000E+00  0.45593999997E+02  0.45594000000E+02  0.51100000000E-03 0.  1.
         11   -1    0    0    0    0 -0.00000000000E+00 -0.00000000000E+00 -0.45593999997E+02  0.45594000000E+02  0.51100000000E-03 0. -1.
    9900012    2    1    2    0    0 -0.87638517132E+01  0.15867029425E+02  0.36395010567E+02  0.50528874163E+02  0.30000043507E+02 0.  0.
         12    1    1    2    0    0  0.87638517132E+01 -0.15867029425E+02 -0.36395010567E+02  0.40659125837E+02  0.00000000000E+00 0. -1.
         11    1    3    3    0    0 -0.41144024233E+01 -0.70666885737E+01  0.16265186591E+02  0.18205018259E+02  0.51100000000E-03 0. -1.
        -11    1    3    3    0    0 -0.29274544874E+01  0.20147023387E+02  0.12176032887E+02  0.23721895334E+02  0.51100000000E-03 0.  1.
        -12    1    3    3    0    0 -0.17219948024E+01  0.27866946120E+01  0.79537910897E+01  0.86019605706E+01  0.00000000000E+00 0.  1.
</event>
<event>
 7    1  0.5972636E-013  0.5052884E+02  0.7816164E-02  0.1300439E+00
        -11   -1    0    0    0    0  0.00000000000E+00  0.00000000000E+00  0.45593999997E+02  0.45594000000E+02  0.51100000000E-03 0.  1.
         11   -1    0    0    0    0 -0.00000000000E+00 -0.00000000000E+00 -0.45593999997E+02  0.45594000000E+02  0.51100000000E-03 0. -1.
    9900012    2    1    2    0    0  0.15458062726E+02  0.14711515990E+02  0.34609054504E+02  0.50528842856E+02  0.29999948346E+02 0.  0.
         12    1    1    2    0    0 -0.15458062726E+02 -0.14711515990E+02 -0.34609054504E+02  0.40659157144E+02  0.00000000000E+00 0. -1.
         11    1    3    3    0    0  0.16366400651E+01  0.12869555485E+02  0.17984199988E+02  0.22175109888E+02  0.51100000000E-03 0. -1.
        -11    1    3    3    0    0  0.13314423615E+02  0.17328774550E+01  0.18312285682E+01  0.13551019844E+02  0.51100000000E-03 0.  1.
        -12    1    3    3    0    0  0.50699904557E+00  0.10908304988E+00  0.14793625948E+02  0.14802713124E+02  0.00000000000E+00 0.  1.
</event>
<event>
 7    1  0.5972636E-013  0.5052886E+02  0.7816164E-02  0.1300439E+00
        -11   -1    0    0    0    0  0.00000000000E+00  0.00000000000E+00  0.45593999997E+02  0.45594000000E+02  0.51100000000E-03 0.  1.
         11   -1    0    0    0    0 -0.00000000000E+00 -0.00000000000E+00 -0.45593999997E+02  0.45594000000E+02  0.51100000000E-03 0. -1.
    9900012    2    1    2    0    0 -0.43707298506E+01 -0.37476319156E+02 -0.15152157992E+02  0.50528859961E+02  0.30000000337E+02 0.  0.
         12    1    1    2    0    0  0.43707298506E+01  0.37476319156E+02  0.15152157992E+02  0.40659140039E+02  0.00000000000E+00 0. -1.
         11    1    3    3    0    0 -0.79530552835E+01 -0.14555700979E+02 -0.11602159609E+02  0.20241779249E+02  0.51100000000E-03 0. -1.
        -11    1    3    3    0    0  0.96105522002E+01 -0.12392439712E+02  0.37551032255E+01  0.16125634130E+02  0.51100000000E-03 0.  1.
        -12    1    3    3    0    0 -0.60282267673E+01 -0.10528178466E+02 -0.73051016087E+01  0.14161446581E+02  0.00000000000E+00 0.  1.
</event>
<event>
 7    1  0.5972636E-013  0.5052886E+02  0.7816164E-02  0.1300439E+00
        -11   -1    0    0    0    0  0.00000000000E+00  0.00000000000E+00  0.45593999997E+02  0.45594000000E+02  0.51100000000E-03 0. -1.
         11   -1    0    0    0    0 -0.00000000000E+00 -0.00000000000E+00 -0.45593999997E+02  0.45594000000E+02  0.51100000000E-03 0.  1.
    9900012    2    1    2    0    0 -0.34585026155E+02  0.14202424316E+02 -0.15979126903E+02  0.50528863423E+02  0.30000010860E+02 0.  0.
         12    1    1    2    0    0  0.34585026155E+02 -0.14202424316E+02  0.15979126903E+02  0.40659136577E+02  0.00000000000E+00 0. -1.
         11    1    3    3    0    0 -0.24490583559E+02  0.15777826834E+02 -0.30976956927E+00  0.29134592156E+02  0.51100000000E-03 0. -1.
        -11    1    3    3    0    0 -0.72526803226E+01  0.55907453299E+00 -0.16239952933E+02  0.17794662338E+02  0.51100000000E-03 0.  1.
        -12    1    3    3    0    0 -0.28417622740E+01 -0.21344770509E+01  0.57059559934E+00  0.35996089289E+01  0.00000000000E+00 0.  1.
</event>
<event>
 7    1  0.5972636E-013  0.5052887E+02  0.7816164E-02  0.1300439E+00
        -11   -1    0    0    0    0  0.00000000000E+00  0.00000000000E+00  0.45593999997E+02  0.45594000000E+02  0.51100000000E-03 0.  1.
         11   -1    0    0    0    0 -0.00000000000E+00 -0.00000000000E+00 -0.45593999997E+02  0.45594000000E+02  0.51100000000E-03 0. -1.
    9900012    2    1    2    0    0  0.15452667435E+02 -0.33706528735E+02  0.16680821204E+02  0.50528870566E+02  0.30000032574E+02 0.  0.
         12    1    1    2    0    0 -0.15452667435E+02  0.33706528735E+02 -0.16680821204E+02  0.40659129434E+02  0.00000000000E+00 0. -1.
         11    1    3    3    0    0  0.21550199174E+01 -0.16991643430E+02 -0.47121274844E+01  0.17764126857E+02  0.51100000000E-03 0. -1.
        -11    1    3    3    0    0  0.42222636723E+01 -0.12242771597E+02  0.17833042404E+02  0.22039291471E+02  0.51100000000E-03 0.  1.
         12    1    3    3    0    0  0.90753838454E+01 -0.44721137081E+01  0.35599062846E+01  0.10725452238E+02  0.00000000000E+00 0. -1.
</event>
<event>
 7    1  0.5972636E-013  0.5052886E+02  0.7816164E-02  0.1300439E+00
        -11   -1    0    0    0    0  0.00000000000E+00  0.00000000000E+00  0.45593999997E+02  0.45594000000E+02  0.51100000000E-03 0.  1.
         11   -1    0    0    0    0 -0.00000000000E+00 -0.00000000000E+00 -0.45593999997E+02  0.45594000000E+02  0.51100000000E-03 0. -1.
    9900012    2    1    2    0    0  0.15202909118E+02 -0.85017546831E+01  0.36739043503E+02  0.50528860856E+02  0.30000003059E+02 0.  0.
         12    1    1    2    0    0 -0.15202909118E+02  0.85017546831E+01 -0.36739043503E+02  0.40659139144E+02  0.00000000000E+00 0. -1.
         11    1    3    3    0    0 -0.62987922684E+01  0.43713892387E+01  0.11821634356E+02  0.14090240134E+02  0.51100000000E-03 0. -1.
        -11    1    3    3    0    0  0.17934815486E+02 -0.98080599772E+01  0.14661428306E+02  0.25155777214E+02  0.51100000000E-03 0.  1.
         12    1    3    3    0    0  0.35668859009E+01 -0.30650839445E+01  0.10255980842E+02  0.11282843509E+02  0.00000000000E+00 0. -1.
</event>
<event>
 7    1  0.5972636E-013  0.5052886E+02  0.7816164E-02  0.1300439E+00
        -11   -1    0    0    0    0  0.00000000000E+00  0.00000000000E+00  0.45593999997E+02  0.45594000000E+02  0.51100000000E-03 0.  1.
         11   -1    0    0    0    0 -0.00000000000E+00 -0.00000000000E+00 -0.45593999997E+02  0.45594000000E+02  0.51100000000E-03 0. -1.
    9900012    2    1    2    0    0  0.23217045333E+02 -0.13536827710E+02  0.30510475198E+02  0.50528855945E+02  0.29999988131E+02 0.  0.
         12    1    1    2    0    0 -0.23217045333E+02  0.13536827710E+02 -0.30510475198E+02  0.40659144055E+02  0.00000000000E+00 0. -1.
         11    1    3    3    0    0 -0.40801064419E+01 -0.63591862031E+01  0.30978702134E+01  0.81659854190E+01  0.51100000000E-03 0. -1.
        -11    1    3    3    0    0  0.21976026192E+02 -0.10182172874E+02  0.26950454570E+02  0.36234643277E+02  0.51100000000E-03 0.  1.
         12    1    3    3    0    0  0.53211255833E+01  0.30045313675E+01  0.46215041437E+00  0.61282272491E+01  0.00000000000E+00 0. -1.
</event>
<event>
 7    1  0.5972636E-013  0.5052884E+02  0.7816164E-02  0.1300439E+00
        -11   -1    0    0    0    0  0.00000000000E+00  0.00000000000E+00  0.45593999997E+02  0.45594000000E+02  0.51100000000E-03 0.  1.
         11   -1    0    0    0    0 -0.00000000000E+00 -0.00000000000E+00 -0.45593999997E+02  0.45594000000E+02  0.51100000000E-03 0. -1.
    9900012    2    1    2    0    0  0.17813372629E+02 -0.31965066786E+01  0.36409251782E+02  0.50528837261E+02  0.29999931338E+02 0.  0.
         12    1    1    2    0    0 -0.17813372629E+02  0.31965066786E+01 -0.36409251782E+02  0.40659162739E+02  0.00000000000E+00 0. -1.
         11    1    3    3    0    0  0.22632155514E+02  0.20108108479E+01  0.29373243870E+02  0.37135498908E+02  0.51100000000E-03 0. -1.
        -11    1    3    3    0    0  0.20671409106E+01 -0.37654410855E+01  0.33731486210E+01  0.54616618344E+01  0.51100000000E-03 0.  1.
         12    1    3    3    0    0 -0.68859237964E+01 -0.14418764410E+01  0.36628592909E+01  0.79316765180E+01  0.00000000000E+00 0. -1.
</event>
<event>
 7    1  0.5972636E-013  0.5052885E+02  0.7816164E-02  0.1300439E+00
        -11   -1    0    0    0    0  0.00000000000E+00  0.00000000000E+00  0.45593999997E+02  0.45594000000E+02  0.51100000000E-03 0.  1.
         11   -1    0    0    0    0 -0.00000000000E+00 -0.00000000000E+00 -0.45593999997E+02  0.45594000000E+02  0.51100000000E-03 0. -1.
    9900012    2    1    2    0    0 -0.22746301950E+02  0.30288686933E+02  0.14777281542E+02  0.50528845332E+02  0.29999955872E+02 0.  0.
         12    1    1    2    0    0  0.22746301950E+02 -0.30288686933E+02 -0.14777281542E+02  0.40659154668E+02  0.00000000000E+00 0. -1.
         11    1    3    3    0    0 -0.12816899819E+02  0.18775143288E+02 -0.61081946051E+01  0.23539094461E+02  0.51100000000E-03 0. -1.
        -11    1    3    3    0    0 -0.70894454505E+01  0.10077695126E+02  0.10700985826E+02  0.16319659119E+02  0.51100000000E-03 0.  1.
         12    1    3    3    0    0 -0.28399566800E+01  0.14358485202E+01  0.10184490321E+02  0.10670091753E+02  0.00000000000E+00 0. -1.
</event>
<event>
 7    1  0.5972636E-013  0.5052887E+02  0.7816164E-02  0.1300439E+00
        -11   -1    0    0    0    0  0.00000000000E+00  0.00000000000E+00  0.45593999997E+02  0.45594000000E+02  0.51100000000E-03 0.  1.
         11   -1    0    0    0    0 -0.00000000000E+00 -0.00000000000E+00 -0.45593999997E+02  0.45594000000E+02  0.51100000000E-03 0. -1.
    9900012    2    1    2    0    0  0.80804542736E+01  0.39818721166E+02 -0.15299861893E+01  0.50528866287E+02  0.30000019565E+02 0.  0.
         12    1    1    2    0    0 -0.80804542736E+01 -0.39818721166E+02  0.15299861893E+01  0.40659133713E+02  0.00000000000E+00 0. -1.
         11    1    3    3    0    0 -0.74431326627E+01  0.15738400228E+02 -0.72787212218E+01  0.18870009233E+02  0.51100000000E-03 0. -1.
        -11    1    3    3    0    0  0.46184394546E+01  0.10205402245E+02  0.81441960994E+01  0.13849481880E+02  0.51100000000E-03 0.  1.
         12    1    3    3    0    0  0.10905147482E+02  0.13874918693E+02 -0.23954610670E+01  0.17809375174E+02  0.00000000000E+00 0. -1.
</event>
<event>
 7    1  0.5972636E-013  0.5052887E+02  0.7816164E-02  0.1300439E+00
        -11   -1    0    0    0    0  0.00000000000E+00  0.00000000000E+00  0.45593999997E+02  0.45594000000E+02  0.51100000000E-03 0.  1.
         11   -1    0    0    0    0 -0.00000000000E+00 -0.00000000000E+00 -0.45593999997E+02  0.45594000000E+02  0.51100000000E-03 0. -1.
    9900012    2    1    2    0    0 -0.22157265575E+02 -0.33544459066E+02  0.60818907387E+01  0.50528873758E+02  0.30000042275E+02 0.  0.
         12    1    1    2    0    0  0.22157265575E+02  0.33544459066E+02 -0.60818907387E+01  0.40659126242E+02  0.00000000000E+00 0. -1.
         11    1    3    3    0    0  0.27308720796E+00 -0.99201803679E+01  0.17100578096E+01  0.10070196280E+02  0.51100000000E-03 0. -1.
        -11    1    3    3    0    0 -0.26166828978E+02 -0.19622523907E+02 -0.10900663681E+01  0.32725137557E+02  0.51100000000E-03 0.  1.
        -12    1    3    3    0    0  0.37364761945E+01 -0.40017547916E+01  0.54618992972E+01  0.77335399202E+01  0.00000000000E+00 0.  1.
</event>
<event>
 7    1  0.5972636E-013  0.5052888E+02  0.7816164E-02  0.1300439E+00
        -11   -1    0    0    0    0  0.00000000000E+00  0.00000000000E+00  0.45593999997E+02  0.45594000000E+02  0.51100000000E-03 0. -1.
         11   -1    0    0    0    0 -0.00000000000E+00 -0.00000000000E+00 -0.45593999997E+02  0.45594000000E+02  0.51100000000E-03 0.  1.
    9900012    2    1    2    0    0 -0.22192108865E+02  0.20337851364E+02 -0.27332150814E+02  0.50528876029E+02  0.30000049178E+02 0.  0.
         12    1    1    2    0    0  0.22192108865E+02 -0.20337851364E+02  0.27332150814E+02  0.40659123971E+02  0.00000000000E+00 0. -1.
         11    1    3    3    0    0 -0.26017167433E+02  0.88931626758E+01 -0.15789860497E+02  0.31706482593E+02  0.51100000000E-03 0. -1.
        -11    1    3    3    0    0  0.62766107235E+00 -0.11047638756E+01 -0.31340990780E+01  0.33818691481E+01  0.51100000000E-03 0.  1.
         12    1    3    3    0    0  0.31973974955E+01  0.12549452564E+02 -0.84081912382E+01  0.15440524288E+02  0.00000000000E+00 0. -1.
</event>
<event>
 7    1  0.5972636E-013  0.5052886E+02  0.7816164E-02  0.1300439E+00
        -11   -1    0    0    0    0  0.00000000000E+00  0.00000000000E+00  0.45593999997E+02  0.45594000000E+02  0.51100000000E-03 0.  1.
         11   -1    0    0    0    0 -0.00000000000E+00 -0.00000000000E+00 -0.45593999997E+02  0.45594000000E+02  0.51100000000E-03 0. -1.
    9900012    2    1    2    0    0  0.26075663056E+01  0.38028720314E+02  0.14148579851E+02  0.50528864709E+02  0.30000014770E+02 0.  0.
         12    1    1    2    0    0 -0.26075663056E+01 -0.38028720314E+02 -0.14148579851E+02  0.40659135291E+02  0.00000000000E+00 0. -1.
         11    1    3    3    0    0  0.16152035927E+01 -0.96759582876E+00  0.20699932417E+01  0.27982131111E+01  0.51100000000E-03 0. -1.
        -11    1    3    3    0    0  0.13174797322E+01  0.42504061263E+02  0.12083239962E+02  0.44207868812E+02  0.51100000000E-03 0.  1.
        -12    1    3    3    0    0 -0.32511701927E+00 -0.35077451198E+01 -0.46533531905E-02  0.35227827857E+01  0.00000000000E+00 0.  1.
</event>
<event>
 7    1  0.5972636E-013  0.5052887E+02  0.7816164E-02  0.1300439E+00
        -11   -1    0    0    0    0  0.00000000000E+00  0.00000000000E+00  0.45593999997E+02  0.45594000000E+02  0.51100000000E-03 0.  1.
         11   -1    0    0    0    0 -0.00000000000E+00 -0.00000000000E+00 -0.45593999997E+02  0.45594000000E+02  0.51100000000E-03 0. -1.
    9900012    2    1    2    0    0  0.15177260219E+02  0.24551849948E+02  0.28636032284E+02  0.50528869308E+02  0.30000028749E+02 0.  0.
         12    1    1    2    0    0 -0.15177260219E+02 -0.24551849948E+02 -0.28636032284E+02  0.40659130692E+02  0.00000000000E+00 0. -1.
         11    1    3    3    0    0 -0.21359601715E+01 -0.11566150946E+01  0.21072745628E+01  0.32156944313E+01  0.51100000000E-03 0. -1.
        -11    1    3    3    0    0  0.16370480777E+02  0.27784898298E+02  0.15010193611E+02  0.35571043375E+02  0.51100000000E-03 0.  1.
        -12    1    3    3    0    0  0.94273961398E+00 -0.20764332551E+01  0.11518564110E+02  0.11742131502E+02  0.00000000000E+00 0.  1.
</event>
<event>
 7    1  0.5972636E-013  0.5052883E+02  0.7816164E-02  0.1300439E+00
        -11   -1    0    0    0    0  0.00000000000E+00  0.00000000000E+00  0.45593999997E+02  0.45594000000E+02  0.51100000000E-03 0. -1.
         11   -1    0    0    0    0 -0.00000000000E+00 -0.00000000000E+00 -0.45593999997E+02  0.45594000000E+02  0.51100000000E-03 0.  1.
    9900012    2    1    2    0    0  0.31197352427E+02  0.21784984943E+02 -0.14328562589E+02  0.50528830391E+02  0.29999910458E+02 0.  0.
         12    1    1    2    0    0 -0.31197352427E+02 -0.21784984943E+02  0.14328562589E+02  0.40659169609E+02  0.00000000000E+00 0. -1.
         11    1    3    3    0    0  0.13147225970E+02  0.18410007980E+02  0.17093668201E+01  0.22686998032E+02  0.51100000000E-03 0. -1.
        -11    1    3    3    0    0  0.14608529425E+02  0.49771527515E+01 -0.17882405042E+02  0.23621210634E+02  0.51100000000E-03 0.  1.
         12    1    3    3    0    0  0.34415970320E+01 -0.16021757886E+01  0.18444756329E+01  0.42206217254E+01  0.00000000000E+00 0. -1.
</event>
<event>
 7    1  0.5972636E-013  0.5052886E+02  0.7816164E-02  0.1300439E+00
        -11   -1    0    0    0    0  0.00000000000E+00  0.00000000000E+00  0.45593999997E+02  0.45594000000E+02  0.51100000000E-03 0.  1.
         11   -1    0    0    0    0 -0.00000000000E+00 -0.00000000000E+00 -0.45593999997E+02  0.45594000000E+02  0.51100000000E-03 0. -1.
    9900012    2    1    2    0    0  0.35931615565E+02  0.18709373155E+02  0.34704778690E+01  0.50528857638E+02  0.29999993276E+02 0.  0.
         12    1    1    2    0    0 -0.35931615565E+02 -0.18709373155E+02 -0.34704778690E+01  0.40659142362E+02  0.00000000000E+00 0. -1.
         11    1    3    3    0    0 -0.16627433808E+01  0.80101410779E+01 -0.52991339099E+01  0.97471993975E+01  0.51100000000E-03 0. -1.
        -11    1    3    3    0    0  0.91867862600E+01 -0.50575386440E+00  0.31936814987E+01  0.97392212488E+01  0.51100000000E-03 0.  1.
         12    1    3    3    0    0  0.28407572686E+02  0.11204985942E+02  0.55759302803E+01  0.31042436991E+02  0.00000000000E+00 0. -1.
</event>
<event>
 7    1  0.5972636E-013  0.5052888E+02  0.7816164E-02  0.1300439E+00
        -11   -1    0    0    0    0  0.00000000000E+00  0.00000000000E+00  0.45593999997E+02  0.45594000000E+02  0.51100000000E-03 0. -1.
         11   -1    0    0    0    0 -0.00000000000E+00 -0.00000000000E+00 -0.45593999997E+02  0.45594000000E+02  0.51100000000E-03 0.  1.
    9900012    2    1    2    0    0  0.59926598390E+01  0.33381006621E+02  0.22426772745E+02  0.50528884039E+02  0.30000073524E+02 0.  0.
         12    1    1    2    0    0 -0.59926598390E+01 -0.33381006621E+02 -0.22426772745E+02  0.40659115961E+02  0.00000000000E+00 0. -1.
         11    1    3    3    0    0  0.63856100742E+01  0.14962052993E+02  0.26008255818E+02  0.30676838441E+02  0.51100000000E-03 0. -1.
        -11    1    3    3    0    0 -0.13970509643E+01  0.16174439380E+02 -0.96772080452E+00  0.16263478240E+02  0.51100000000E-03 0.  1.
        -12    1    3    3    0    0  0.10041007292E+01  0.22445142486E+01 -0.26137622681E+01  0.35885673577E+01  0.00000000000E+00 0.  1.
</event>
<event>
 7    1  0.5972636E-013  0.5052886E+02  0.7816164E-02  0.1300439E+00
        -11   -1    0    0    0    0  0.00000000000E+00  0.00000000000E+00  0.45593999997E+02  0.45594000000E+02  0.51100000000E-03 0.  1.
         11   -1    0    0    0    0 -0.00000000000E+00 -0.00000000000E+00 -0.45593999997E+02  0.45594000000E+02  0.51100000000E-03 0. -1.
    9900012    2    1    2    0    0  0.29850110218E+02 -0.18695918181E+02  0.20312540320E+02  0.50528859196E+02  0.29999998012E+02 0.  0.
         12    1    1    2    0    0 -0.29850110218E+02  0.18695918181E+02 -0.20312540320E+02  0.40659140804E+02  0.00000000000E+00 0. -1.
         11    1    3    3    0    0 -0.46358411075E+01 -0.85356616983E+01  0.35863446944E+01  0.10354246082E+02  0.51100000000E-03 0. -1.
        -11    1    3    3    0    0  0.10778649806E+02 -0.41380970973E+01  0.86114295725E+01  0.14403466901E+02  0.51100000000E-03 0.  1.
         12    1    3    3    0    0  0.23707301520E+02 -0.60221593859E+01  0.81147660528E+01  0.25771146213E+02  0.00000000000E+00 0. -1.
</event>
<event>
 7    1  0.5972636E-013  0.5052886E+02  0.7816164E-02  0.1300439E+00
        -11   -1    0    0    0    0  0.00000000000E+00  0.00000000000E+00  0.45593999997E+02  0.45594000000E+02  0.51100000000E-03 0.  1.
         11   -1    0    0    0    0 -0.00000000000E+00 -0.00000000000E+00 -0.45593999997E+02  0.45594000000E+02  0.51100000000E-03 0. -1.
    9900012    2    1    2    0    0  0.46928972884E+01 -0.15142171139E+02  0.37441386197E+02  0.50528855492E+02  0.29999986753E+02 0.  0.
         12    1    1    2    0    0 -0.46928972884E+01  0.15142171139E+02 -0.37441386197E+02  0.40659144508E+02  0.00000000000E+00 0. -1.
         11    1    3    3    0    0 -0.75365886803E+01 -0.72883409738E+01  0.78213269026E+01  0.13080261384E+02  0.51100000000E-03 0. -1.
        -11    1    3    3    0    0  0.48454457921E+01  0.33314383063E+01  0.20272596472E+02  0.21108173632E+02  0.51100000000E-03 0.  1.
        -12    1    3    3    0    0  0.73840401766E+01 -0.11185268471E+02  0.93474628225E+01  0.16340420476E+02  0.00000000000E+00 0.  1.
</event>
<event>
 7    1  0.5972636E-013  0.5052886E+02  0.7816164E-02  0.1300439E+00
        -11   -1    0    0    0    0  0.00000000000E+00  0.00000000000E+00  0.45593999997E+02  0.45594000000E+02  0.51100000000E-03 0.  1.
         11   -1    0    0    0    0 -0.00000000000E+00 -0.00000000000E+00 -0.45593999997E+02  0.45594000000E+02  0.51100000000E-03 0. -1.
    9900012    2    1    2    0    0  0.19444214359E+02  0.60245333147E+01  0.35196492696E+02  0.50528861153E+02  0.30000003959E+02 0.  0.
         12    1    1    2    0    0 -0.19444214359E+02 -0.60245333147E+01 -0.35196492696E+02  0.40659138847E+02  0.00000000000E+00 0. -1.
         11    1    3    3    0    0  0.12140107328E+02 -0.14706675280E+00  0.10893033205E+02  0.16311407273E+02  0.51100000000E-03 0. -1.
        -11    1    3    3    0    0  0.19835084135E+01  0.90782989920E+01  0.26252882826E+02  0.27848943879E+02  0.51100000000E-03 0.  1.
        -12    1    3    3    0    0  0.53205986175E+01 -0.29066989245E+01 -0.19494233352E+01  0.63685100005E+01  0.00000000000E+00 0.  1.
</event>
<event>
 7    1  0.5972636E-013  0.5052886E+02  0.7816164E-02  0.1300439E+00
        -11   -1    0    0    0    0  0.00000000000E+00  0.00000000000E+00  0.45593999997E+02  0.45594000000E+02  0.51100000000E-03 0.  1.
         11   -1    0    0    0    0 -0.00000000000E+00 -0.00000000000E+00 -0.45593999997E+02  0.45594000000E+02  0.51100000000E-03 0. -1.
    9900012    2    1    2    0    0  0.76137294944E+01  0.28962042832E+02  0.27502668022E+02  0.50528861419E+02  0.30000004770E+02 0.  0.
         12    1    1    2    0    0 -0.76137294944E+01 -0.28962042832E+02 -0.27502668022E+02  0.40659138581E+02  0.00000000000E+00 0. -1.
         11    1    3    3    0    0 -0.24587073055E+01  0.27439498139E+01 -0.40028744346E+00  0.37060400016E+01  0.51100000000E-03 0. -1.
        -11    1    3    3    0    0  0.23351055670E+01  0.27447993176E+02  0.27581369753E+02  0.38981752207E+02  0.51100000000E-03 0.  1.
        -12    1    3    3    0    0  0.77373312329E+01 -0.12299001576E+01  0.32158571196E+00  0.78410692112E+01  0.00000000000E+00 0.  1.
</event>
<event>
 7    1  0.5972636E-013  0.5052886E+02  0.7816164E-02  0.1300439E+00
        -11   -1    0    0    0    0  0.00000000000E+00  0.00000000000E+00  0.45593999997E+02  0.45594000000E+02  0.51100000000E-03 0. -1.
         11   -1    0    0    0    0 -0.00000000000E+00 -0.00000000000E+00 -0.45593999997E+02  0.45594000000E+02  0.51100000000E-03 0.  1.
    9900012    2    1    2    0    0  0.18344489144E+02  0.33209801971E+02 -0.14620355932E+02  0.50528855439E+02  0.29999986592E+02 0.  0.
         12    1    1    2    0    0 -0.18344489144E+02 -0.33209801971E+02  0.14620355932E+02  0.40659144561E+02  0.00000000000E+00 0. -1.
         11    1    3    3    0    0  0.92546800191E+01  0.22143451255E+02  0.53373529418E+01  0.24585948678E+02  0.51100000000E-03 0. -1.
        -11    1    3    3    0    0  0.91019246268E+01  0.11754787540E+02 -0.15669781159E+02  0.21600048700E+02  0.51100000000E-03 0.  1.
         12    1    3    3    0    0 -0.12115502325E-01 -0.68843682436E+00 -0.42879277143E+01  0.43428580600E+01  0.00000000000E+00 0. -1.
</event>
<event>
 7    1  0.5972636E-013  0.5052887E+02  0.7816164E-02  0.1300439E+00
        -11   -1    0    0    0    0  0.00000000000E+00  0.00000000000E+00  0.45593999997E+02  0.45594000000E+02  0.51100000000E-03 0.  1.
         11   -1    0    0    0    0 -0.00000000000E+00 -0.00000000000E+00 -0.45593999997E+02  0.45594000000E+02  0.51100000000E-03 0. -1.
    9900012    2    1    2    0    0 -0.23394156946E+02 -0.29813146328E+02 -0.14732762373E+02  0.50528873591E+02  0.30000041767E+02 0.  0.
         12    1    1    2    0    0  0.23394156946E+02  0.29813146328E+02  0.14732762373E+02  0.40659126409E+02  0.00000000000E+00 0. -1.
         11    1    3    3    0    0 -0.32581215701E+01 -0.49371264498E+00 -0.16511370977E+01  0.36858326491E+01  0.51100000000E-03 0. -1.
        -11    1    3    3    0    0 -0.61806104675E+01 -0.11167259527E+02 -0.19280259795E+02  0.23122198190E+02  0.51100000000E-03 0.  1.
        -12    1    3    3    0    0 -0.13955424908E+02 -0.18152174156E+02  0.61986345196E+01  0.23720842752E+02  0.00000000000E+00 0.  1.
</event>
<event>
 7    1  0.5972636E-013  0.5052885E+02  0.7816164E-02  0.1300439E+00
        -11   -1    0    0    0    0  0.00000000000E+00  0.00000000000E+00  0.45593999997E+02  0.45594000000E+02  0.51100000000E-03 0.  1.
         11   -1    0    0    0    0 -0.00000000000E+00 -0.00000000000E+00 -0.45593999997E+02  0.45594000000E+02  0.51100000000E-03 0. -1.
    9900012    2    1    2    0    0 -0.33356524670E+02 -0.15691499115E+02  0.17154758819E+02  0.50528848107E+02  0.29999964304E+02 0.  0.
         12    1    1    2    0    0  0.33356524670E+02  0.15691499115E+02 -0.17154758819E+02  0.40659151893E+02  0.00000000000E+00 0. -1.
         11    1    3    3    0    0 -0.20197031992E+02 -0.46537048996E+01 -0.51309377203E+01  0.21351899043E+02  0.51100000000E-03 0. -1.
        -11    1    3    3    0    0 -0.22091569817E+01 -0.10763696054E+01  0.88522565710E+01  0.91870230629E+01  0.51100000000E-03 0.  1.
         12    1    3    3    0    0 -0.10950335696E+02 -0.99614246096E+01  0.13433439969E+02  0.19989926000E+02  0.00000000000E+00 0. -1.
</event>
<event>
 7    1  0.5972636E-013  0.5052887E+02  0.7816164E-02  0.1300439E+00
        -11   -1    0    0    0    0  0.00000000000E+00  0.00000000000E+00  0.45593999997E+02  0.45594000000E+02  0.51100000000E-03 0.  1.
         11   -1    0    0    0    0 -0.00000000000E+00 -0.00000000000E+00 -0.45593999997E+02  0.45594000000E+02  0.51100000000E-03 0. -1.
    9900012    2    1    2    0    0 -0.12122219876E+01  0.22589312504E+02  0.33784887098E+02  0.50528866736E+02  0.30000020930E+02 0.  0.
         12    1    1    2    0    0  0.12122219876E+01 -0.22589312504E+02 -0.33784887098E+02  0.40659133264E+02  0.00000000000E+00 0. -1.
         11    1    3    3    0    0  0.95908100368E+01  0.14439920213E+02  0.98674533865E+01  0.19946467595E+02  0.51100000000E-03 0. -1.
        -11    1    3    3    0    0 -0.41962545999E+01 -0.36262799325E+01  0.74273706189E+01  0.92695357698E+01  0.51100000000E-03 0.  1.
        -12    1    3    3    0    0 -0.66067774246E+01  0.11775672224E+02  0.16490063093E+02  0.21312863371E+02  0.00000000000E+00 0.  1.
</event>
<event>
 7    1  0.5972636E-013  0.5052885E+02  0.7816164E-02  0.1300439E+00
        -11   -1    0    0    0    0  0.00000000000E+00  0.00000000000E+00  0.45593999997E+02  0.45594000000E+02  0.51100000000E-03 0.  1.
         11   -1    0    0    0    0 -0.00000000000E+00 -0.00000000000E+00 -0.45593999997E+02  0.45594000000E+02  0.51100000000E-03 0. -1.
    9900012    2    1    2    0    0 -0.20408059619E+02 -0.18972177114E+02  0.29609692354E+02  0.50528852405E+02  0.29999977370E+02 0.  0.
         12    1    1    2    0    0  0.20408059619E+02  0.18972177114E+02 -0.29609692354E+02  0.40659147595E+02  0.00000000000E+00 0. -1.
         11    1    3    3    0    0 -0.20607959138E+01 -0.13208925969E+02  0.23705142199E+00  0.13370818923E+02  0.51100000000E-03 0. -1.
        -11    1    3    3    0    0 -0.88072255599E+01 -0.64268612148E+01  0.23576798323E+02  0.25975703774E+02  0.51100000000E-03 0.  1.
        -12    1    3    3    0    0 -0.95400381450E+01  0.66361006938E+00  0.57958426090E+01  0.11182329707E+02  0.00000000000E+00 0.  1.
</event>
<event>
 7    1  0.5972636E-013  0.5052886E+02  0.7816164E-02  0.1300439E+00
        -11   -1    0    0    0    0  0.00000000000E+00  0.00000000000E+00  0.45593999997E+02  0.45594000000E+02  0.51100000000E-03 0.  1.
         11   -1    0    0    0    0 -0.00000000000E+00 -0.00000000000E+00 -0.45593999997E+02  0.45594000000E+02  0.51100000000E-03 0. -1.
    9900012    2    1    2    0    0 -0.89478016759E+00 -0.40538050449E+02 -0.30052640699E+01  0.50528858619E+02  0.29999996258E+02 0.  0.
         12    1    1    2    0    0  0.89478016759E+00  0.40538050449E+02  0.30052640699E+01  0.40659141381E+02  0.00000000000E+00 0. -1.
         11    1    3    3    0    0 -0.10420625670E+02 -0.14325066154E+02  0.46741440785E+01  0.18320605415E+02  0.51100000000E-03 0. -1.
        -11    1    3    3    0    0  0.54532943937E+01 -0.25200658033E+02 -0.30561072830E+01  0.25964425220E+02  0.51100000000E-03 0.  1.
         12    1    3    3    0    0  0.40725511085E+01 -0.10123262618E+01 -0.46233008654E+01  0.62438279832E+01  0.00000000000E+00 0. -1.
</event>
<event>
 7    1  0.5972636E-013  0.5052885E+02  0.7816164E-02  0.1300439E+00
        -11   -1    0    0    0    0  0.00000000000E+00  0.00000000000E+00  0.45593999997E+02  0.45594000000E+02  0.51100000000E-03 0. -1.
         11   -1    0    0    0    0 -0.00000000000E+00 -0.00000000000E+00 -0.45593999997E+02  0.45594000000E+02  0.51100000000E-03 0.  1.
    9900012    2    1    2    0    0 -0.31825240579E+02  0.24068817379E+02  0.78110421757E+01  0.50528852348E+02  0.29999977197E+02 0.  0.
         12    1    1    2    0    0  0.31825240579E+02 -0.24068817379E+02 -0.78110421757E+01  0.40659147652E+02  0.00000000000E+00 0. -1.
         11    1    3    3    0    0  0.29192189257E+01  0.13849885789E+01 -0.34926474272E+01  0.47580057599E+01  0.51100000000E-03 0. -1.
        -11    1    3    3    0    0 -0.30312209642E+02  0.23654486303E+02  0.62072961955E+01  0.38947340114E+02  0.51100000000E-03 0.  1.
         12    1    3    3    0    0 -0.44322498632E+01 -0.97065750337E+00  0.50963934073E+01  0.68235064740E+01  0.00000000000E+00 0. -1.
</event>
<event>
 7    1  0.5972636E-013  0.5052886E+02  0.7816164E-02  0.1300439E+00
        -11   -1    0    0    0    0  0.00000000000E+00  0.00000000000E+00  0.45593999997E+02  0.45594000000E+02  0.51100000000E-03 0.  1.
         11   -1    0    0    0    0 -0.00000000000E+00 -0.00000000000E+00 -0.45593999997E+02  0.45594000000E+02  0.51100000000E-03 0. -1.
    9900012    2    1    2    0    0  0.93834561005E+01 -0.14382809666E+02  0.36854454871E+02  0.50528864420E+02  0.30000013890E+02 0.  0.
         12    1    1    2    0    0 -0.93834561005E+01  0.14382809666E+02 -0.36854454871E+02  0.40659135580E+02  0.00000000000E+00 0. -1.
         11    1    3    3    0    0  0.54184841423E+01 -0.15180562447E+02  0.95176204760E+01  0.18718828660E+02  0.51100000000E-03 0.  1.
        -11    1    3    3    0    0  0.52577354551E+01  0.58642806142E+01  0.24756465766E+02  0.25979148691E+02  0.51100000000E-03 0. -1.
         12    1    3    3    0    0 -0.12927634969E+01 -0.50665278334E+01  0.25803686292E+01  0.58308870687E+01  0.00000000000E+00 0. -1.
</event>
<event>
 7    1  0.5972636E-013  0.5052886E+02  0.7816164E-02  0.1300439E+00
        -11   -1    0    0    0    0  0.00000000000E+00  0.00000000000E+00  0.45593999997E+02  0.45594000000E+02  0.51100000000E-03 0.  1.
         11   -1    0    0    0    0 -0.00000000000E+00 -0.00000000000E+00 -0.45593999997E+02  0.45594000000E+02  0.51100000000E-03 0. -1.
    9900012    2    1    2    0    0 -0.13340511764E+02 -0.54781501042E+01  0.38015602793E+02  0.50528862793E+02  0.30000008945E+02 0.  0.
         12    1    1    2    0    0  0.13340511764E+02  0.54781501042E+01 -0.38015602793E+02  0.40659137207E+02  0.00000000000E+00 0. -1.
         11    1    3    3    0    0 -0.93045104906E+01 -0.12695901753E+02  0.73685520009E+01  0.17379740955E+02  0.51100000000E-03 0. -1.
        -11    1    3    3    0    0  0.30047635572E+01  0.20489599692E+01  0.12347748814E+02  0.12872208125E+02  0.51100000000E-03 0.  1.
         12    1    3    3    0    0 -0.70407648306E+01  0.51687916798E+01  0.18299301979E+02  0.20276913713E+02  0.00000000000E+00 0. -1.
</event>
<event>
 7    1  0.5972636E-013  0.5052887E+02  0.7816164E-02  0.1300439E+00
        -11   -1    0    0    0    0  0.00000000000E+00  0.00000000000E+00  0.45593999997E+02  0.45594000000E+02  0.51100000000E-03 0.  1.
         11   -1    0    0    0    0 -0.00000000000E+00 -0.00000000000E+00 -0.45593999997E+02  0.45594000000E+02  0.51100000000E-03 0. -1.
    9900012    2    1    2    0    0 -0.34848689685E+02  0.17431277480E+02 -0.11613984619E+02  0.50528865158E+02  0.30000016135E+02 0.  0.
         12    1    1    2    0    0  0.34848689685E+02 -0.17431277480E+02  0.11613984619E+02  0.40659134842E+02  0.00000000000E+00 0. -1.
         11    1    3    3    0    0 -0.24913124236E+02  0.11458562461E+02 -0.19331494625E+02  0.33550992498E+02  0.51100000000E-03 0. -1.
        -11    1    3    3    0    0 -0.11817442604E+02  0.43322590333E+01  0.59704676752E+01  0.13930789732E+02  0.51100000000E-03 0.  1.
         12    1    3    3    0    0  0.18818771550E+01  0.16404559858E+01  0.17470423314E+01  0.30470829289E+01  0.00000000000E+00 0. -1.
</event>
<event>
 7    1  0.5972636E-013  0.5052887E+02  0.7816164E-02  0.1300439E+00
        -11   -1    0    0    0    0  0.00000000000E+00  0.00000000000E+00  0.45593999997E+02  0.45594000000E+02  0.51100000000E-03 0.  1.
         11   -1    0    0    0    0 -0.00000000000E+00 -0.00000000000E+00 -0.45593999997E+02  0.45594000000E+02  0.51100000000E-03 0. -1.
    9900012    2    1    2    0    0  0.83676253030E+01 -0.42454194340E+01  0.39561650006E+02  0.50528869530E+02  0.30000029423E+02 0.  0.
         12    1    1    2    0    0 -0.83676253030E+01  0.42454194340E+01 -0.39561650006E+02  0.40659130470E+02  0.00000000000E+00 0. -1.
         11    1    3    3    0    0 -0.13140357410E+01 -0.60946847947E+01  0.17247874144E-01  0.62347550413E+01  0.51100000000E-03 0. -1.
        -11    1    3    3    0    0  0.13227206502E+02 -0.32248005068E+01  0.24553590326E+02  0.28075561051E+02  0.51100000000E-03 0.  1.
        -12    1    3    3    0    0 -0.35455454580E+01  0.50740658675E+01  0.14990811806E+02  0.16218553438E+02  0.00000000000E+00 0.  1.
</event>
<event>
 7    1  0.5972636E-013  0.5052885E+02  0.7816164E-02  0.1300439E+00
        -11   -1    0    0    0    0  0.00000000000E+00  0.00000000000E+00  0.45593999997E+02  0.45594000000E+02  0.51100000000E-03 0.  1.
         11   -1    0    0    0    0 -0.00000000000E+00 -0.00000000000E+00 -0.45593999997E+02  0.45594000000E+02  0.51100000000E-03 0. -1.
    9900012    2    1    2    0    0 -0.36333276261E+02 -0.75880421615E+00  0.18234125725E+02  0.50528854797E+02  0.29999984640E+02 0.  0.
         12    1    1    2    0    0  0.36333276261E+02  0.75880421615E+00 -0.18234125725E+02  0.40659145203E+02  0.00000000000E+00 0. -1.
         11    1    3    3    0    0 -0.86297507397E+01 -0.27560635730E+01 -0.35929382513E+01  0.97456497878E+01  0.51100000000E-03 0. -1.
        -11    1    3    3    0    0 -0.19221513296E+02  0.10440166313E+02  0.17652497643E+02  0.28108260696E+02  0.51100000000E-03 0.  1.
        -12    1    3    3    0    0 -0.84820122252E+01 -0.84429069567E+01  0.41745663332E+01  0.12674944313E+02  0.00000000000E+00 0.  1.
</event>
<event>
 7    1  0.5972636E-013  0.5052885E+02  0.7816164E-02  0.1300439E+00
        -11   -1    0    0    0    0  0.00000000000E+00  0.00000000000E+00  0.45593999997E+02  0.45594000000E+02  0.51100000000E-03 0.  1.
         11   -1    0    0    0    0 -0.00000000000E+00 -0.00000000000E+00 -0.45593999997E+02  0.45594000000E+02  0.51100000000E-03 0. -1.
    9900012    2    1    2    0    0  0.30459952599E+02 -0.25273665020E+02  0.93058941510E+01  0.50528849470E+02  0.29999968449E+02 0.  0.
         12    1    1    2    0    0 -0.30459952599E+02  0.25273665020E+02 -0.93058941510E+01  0.40659150530E+02  0.00000000000E+00 0. -1.
         11    1    3    3    0    0  0.33343418443E-01 -0.77369480515E+01 -0.10874149690E+01  0.78130626844E+01  0.51100000000E-03 0. -1.
        -11    1    3    3    0    0  0.26444879367E+02 -0.58189380966E+01  0.85533944681E+00  0.27091018644E+02  0.51100000000E-03 0.  1.
        -12    1    3    3    0    0  0.39817298128E+01 -0.11717778872E+02  0.95379696732E+01  0.15624768142E+02  0.00000000000E+00 0.  1.
</event>
<event>
 7    1  0.5972636E-013  0.5052886E+02  0.7816164E-02  0.1300439E+00
        -11   -1    0    0    0    0  0.00000000000E+00  0.00000000000E+00  0.45593999997E+02  0.45594000000E+02  0.51100000000E-03 0. -1.
         11   -1    0    0    0    0 -0.00000000000E+00 -0.00000000000E+00 -0.45593999997E+02  0.45594000000E+02  0.51100000000E-03 0.  1.
    9900012    2    1    2    0    0  0.36499613864E+02  0.15513043961E+02 -0.89604321351E+01  0.50528859709E+02  0.29999999572E+02 0.  0.
         12    1    1    2    0    0 -0.36499613864E+02 -0.15513043961E+02  0.89604321351E+01  0.40659140291E+02  0.00000000000E+00 0. -1.
         11    1    3    3    0    0  0.41038998100E+01  0.12948698051E+02 -0.13932041663E+01  0.13654735185E+02  0.51100000000E-03 0. -1.
        -11    1    3    3    0    0  0.15525290256E+02 -0.23663698045E+01  0.35185152142E+01  0.16093921000E+02  0.51100000000E-03 0.  1.
         12    1    3    3    0    0  0.16870423798E+02  0.49307157144E+01 -0.11085743183E+02  0.20780203524E+02  0.00000000000E+00 0. -1.
</event>
<event>
 7    1  0.5972636E-013  0.5052886E+02  0.7816164E-02  0.1300439E+00
        -11   -1    0    0    0    0  0.00000000000E+00  0.00000000000E+00  0.45593999997E+02  0.45594000000E+02  0.51100000000E-03 0.  1.
         11   -1    0    0    0    0 -0.00000000000E+00 -0.00000000000E+00 -0.45593999997E+02  0.45594000000E+02  0.51100000000E-03 0. -1.
    9900012    2    1    2    0    0 -0.22942319886E+02 -0.29114452723E+02  0.16708213126E+02  0.50528858531E+02  0.29999995991E+02 0.  0.
         12    1    1    2    0    0  0.22942319886E+02  0.29114452723E+02 -0.16708213126E+02  0.40659141469E+02  0.00000000000E+00 0. -1.
         11    1    3    3    0    0 -0.20510343592E+02 -0.14379991528E+02  0.10075837583E+02  0.26999645440E+02  0.51100000000E-03 0. -1.
        -11    1    3    3    0    0  0.10457247012E+01  0.17594409257E+01  0.63484953740E+01  0.66702748291E+01  0.51100000000E-03 0.  1.
         12    1    3    3    0    0 -0.34777009947E+01 -0.16493902121E+02  0.28388016986E+00  0.16858938262E+02  0.00000000000E+00 0. -1.
</event>
<event>
 7    1  0.5972636E-013  0.5052886E+02  0.7816164E-02  0.1300439E+00
        -11   -1    0    0    0    0  0.00000000000E+00  0.00000000000E+00  0.45593999997E+02  0.45594000000E+02  0.51100000000E-03 0. -1.
         11   -1    0    0    0    0 -0.00000000000E+00 -0.00000000000E+00 -0.45593999997E+02  0.45594000000E+02  0.51100000000E-03 0.  1.
    9900012    2    1    2    0    0  0.26221575701E+01  0.27546954653E+02 -0.29790184379E+02  0.50528861958E+02  0.30000006408E+02 0.  0.
         12    1    1    2    0    0 -0.26221575701E+01 -0.27546954653E+02  0.29790184379E+02  0.40659138042E+02  0.00000000000E+00 0. -1.
         11    1    3    3    0    0  0.11798209738E+01  0.13171726756E+02 -0.50034694770E+00  0.13233922722E+02  0.51100000000E-03 0. -1.
        -11    1    3    3    0    0  0.50857808378E+00 -0.23045732066E+01 -0.15369147749E+02  0.15549289763E+02  0.51100000000E-03 0.  1.
         12    1    3    3    0    0  0.93375851250E+00  0.16679801103E+02 -0.13920689682E+02  0.21745649474E+02  0.00000000000E+00 0. -1.
</event>
<event>
 7    1  0.5972636E-013  0.5052887E+02  0.7816164E-02  0.1300439E+00
        -11   -1    0    0    0    0  0.00000000000E+00  0.00000000000E+00  0.45593999997E+02  0.45594000000E+02  0.51100000000E-03 0.  1.
         11   -1    0    0    0    0 -0.00000000000E+00 -0.00000000000E+00 -0.45593999997E+02  0.45594000000E+02  0.51100000000E-03 0. -1.
    9900012    2    1    2    0    0 -0.90252522629E+01 -0.39405586342E+02 -0.43485252455E+01  0.50528867137E+02  0.30000022149E+02 0.  0.
         12    1    1    2    0    0  0.90252522629E+01  0.39405586342E+02  0.43485252455E+01  0.40659132863E+02  0.00000000000E+00 0. -1.
         11    1    3    3    0    0 -0.19526334250E+01 -0.68854705413E+01 -0.64593784678E+01  0.96408532983E+01  0.51100000000E-03 0. -1.
        -11    1    3    3    0    0 -0.11348578950E+02 -0.29699287692E+02  0.82948373009E+01  0.32857910154E+02  0.51100000000E-03 0.  1.
        -12    1    3    3    0    0  0.42759601119E+01 -0.28208281086E+01 -0.61839840786E+01  0.80301036843E+01  0.00000000000E+00 0.  1.
</event>
<event>
 7    1  0.5972636E-013  0.5052886E+02  0.7816164E-02  0.1300439E+00
        -11   -1    0    0    0    0  0.00000000000E+00  0.00000000000E+00  0.45593999997E+02  0.45594000000E+02  0.51100000000E-03 0. -1.
         11   -1    0    0    0    0 -0.00000000000E+00 -0.00000000000E+00 -0.45593999997E+02  0.45594000000E+02  0.51100000000E-03 0.  1.
    9900012    2    1    2    0    0  0.31732842277E+02  0.81789105137E+01 -0.24068612570E+02  0.50528856290E+02  0.29999989179E+02 0.  0.
         12    1    1    2    0    0 -0.31732842277E+02 -0.81789105137E+01  0.24068612570E+02  0.40659143710E+02  0.00000000000E+00 0. -1.
         11    1    3    3    0    0 -0.90689394158E+00  0.43283469467E+01  0.48134284829E+01  0.65365233827E+01  0.51100000000E-03 0. -1.
        -11    1    3    3    0    0  0.81876374106E+01  0.11039496746E+01 -0.10031695850E+02  0.12995808291E+02  0.51100000000E-03 0.  1.
         12    1    3    3    0    0  0.24452098808E+02  0.27466138925E+01 -0.18850345203E+02  0.30996524616E+02  0.00000000000E+00 0. -1.
</event>
<event>
 7    1  0.5972636E-013  0.5052886E+02  0.7816164E-02  0.1300439E+00
        -11   -1    0    0    0    0  0.00000000000E+00  0.00000000000E+00  0.45593999997E+02  0.45594000000E+02  0.51100000000E-03 0.  1.
         11   -1    0    0    0    0 -0.00000000000E+00 -0.00000000000E+00 -0.45593999997E+02  0.45594000000E+02  0.51100000000E-03 0. -1.
    9900012    2    1    2    0    0  0.15956922787E+01  0.27145104651E+02  0.30228513427E+02  0.50528856325E+02  0.29999989285E+02 0.  0.
         12    1    1    2    0    0 -0.15956922787E+01 -0.27145104651E+02 -0.30228513427E+02  0.40659143675E+02  0.00000000000E+00 0. -1.
         11    1    3    3    0    0 -0.35669063945E+01  0.24216694259E+02  0.19282813891E+02  0.31160841033E+02  0.51100000000E-03 0. -1.
        -11    1    3    3    0    0  0.89596664612E+01  0.46335883927E+01  0.11351868561E+02  0.15185871215E+02  0.51100000000E-03 0.  1.
         12    1    3    3    0    0 -0.37970677881E+01 -0.17051780004E+01 -0.40616902505E+00  0.41821440765E+01  0.00000000000E+00 0. -1.
</event>
<event>
 7    1  0.5972636E-013  0.5052886E+02  0.7816164E-02  0.1300439E+00
        -11   -1    0    0    0    0  0.00000000000E+00  0.00000000000E+00  0.45593999997E+02  0.45594000000E+02  0.51100000000E-03 0.  1.
         11   -1    0    0    0    0 -0.00000000000E+00 -0.00000000000E+00 -0.45593999997E+02  0.45594000000E+02  0.51100000000E-03 0. -1.
    9900012    2    1    2    0    0 -0.24337811926E+02 -0.30899547515E+02 -0.10298279417E+02  0.50528859762E+02  0.29999999732E+02 0.  0.
         12    1    1    2    0    0  0.24337811926E+02  0.30899547515E+02  0.10298279417E+02  0.40659140238E+02  0.00000000000E+00 0. -1.
         11    1    3    3    0    0 -0.18270714599E+02 -0.96565672402E+01 -0.27156271899E+01  0.20843294704E+02  0.51100000000E-03 0. -1.
        -11    1    3    3    0    0  0.52264762182E+01 -0.99293255381E+01  0.14664960110E+01  0.11316278987E+02  0.51100000000E-03 0.  1.
         12    1    3    3    0    0 -0.11293573545E+02 -0.11313654737E+02 -0.90491482377E+01  0.18369286071E+02  0.00000000000E+00 0. -1.
</event>
<event>
 7    1  0.5972636E-013  0.5052883E+02  0.7816164E-02  0.1300439E+00
        -11   -1    0    0    0    0  0.00000000000E+00  0.00000000000E+00  0.45593999997E+02  0.45594000000E+02  0.51100000000E-03 0.  1.
         11   -1    0    0    0    0 -0.00000000000E+00 -0.00000000000E+00 -0.45593999997E+02  0.45594000000E+02  0.51100000000E-03 0. -1.
    9900012    2    1    2    0    0 -0.26282889935E+02 -0.30424453520E+02  0.60605885508E+01  0.50528826264E+02  0.29999897911E+02 0.  0.
         12    1    1    2    0    0  0.26282889935E+02  0.30424453520E+02 -0.60605885508E+01  0.40659173736E+02  0.00000000000E+00 0. -1.
         11    1    3    3    0    0  0.33805004260E+00  0.25638019956E+00  0.50432957144E+01  0.50611106056E+01  0.51100000000E-03 0. -1.
        -11    1    3    3    0    0 -0.18338007615E+02 -0.93180005687E+01 -0.61349229139E+01  0.21464970005E+02  0.51100000000E-03 0.  1.
        -12    1    3    3    0    0 -0.82829323625E+01 -0.21362833151E+02  0.71522157504E+01  0.24002745653E+02  0.00000000000E+00 0.  1.
</event>
<event>
 7    1  0.5972636E-013  0.5052882E+02  0.7816164E-02  0.1300439E+00
        -11   -1    0    0    0    0  0.00000000000E+00  0.00000000000E+00  0.45593999997E+02  0.45594000000E+02  0.51100000000E-03 0.  1.
         11   -1    0    0    0    0 -0.00000000000E+00 -0.00000000000E+00 -0.45593999997E+02  0.45594000000E+02  0.51100000000E-03 0. -1.
    9900012    2    1    2    0    0 -0.37030180337E+02  0.15470668196E+02  0.65263411102E+01  0.50528819506E+02  0.29999877370E+02 0.  0.
         12    1    1    2    0    0  0.37030180337E+02 -0.15470668196E+02 -0.65263411102E+01  0.40659180494E+02  0.00000000000E+00 0. -1.
         11    1    3    3    0    0 -0.14854859379E+02 -0.33730070931E+01  0.35317346684E+01  0.15637044927E+02  0.51100000000E-03 0. -1.
        -11    1    3    3    0    0 -0.13233935680E+02  0.21560441366E+02  0.34688859340E+01  0.25534738209E+02  0.51100000000E-03 0.  1.
        -12    1    3    3    0    0 -0.89413852767E+01 -0.27167660776E+01 -0.47427949220E+00  0.93570363696E+01  0.00000000000E+00 0.  1.
</event>
<event>
 7    1  0.5972636E-013  0.5052886E+02  0.7816164E-02  0.1300439E+00
        -11   -1    0    0    0    0  0.00000000000E+00  0.00000000000E+00  0.45593999997E+02  0.45594000000E+02  0.51100000000E-03 0.  1.
         11   -1    0    0    0    0 -0.00000000000E+00 -0.00000000000E+00 -0.45593999997E+02  0.45594000000E+02  0.51100000000E-03 0. -1.
    9900012    2    1    2    0    0 -0.99956412966E+01 -0.56113387589E+01  0.39009820205E+02  0.50528855395E+02  0.29999986459E+02 0.  0.
         12    1    1    2    0    0  0.99956412966E+01  0.56113387589E+01 -0.39009820205E+02  0.40659144605E+02  0.00000000000E+00 0. -1.
         11    1    3    3    0    0 -0.71291926609E+01  0.76237573154E+01  0.30554039998E+01  0.10875778476E+02  0.51100000000E-03 0. -1.
        -11    1    3    3    0    0 -0.47140072253E+01 -0.78868121838E+01  0.12427646638E+02  0.15455422083E+02  0.51100000000E-03 0.  1.
        -12    1    3    3    0    0  0.18475585897E+01 -0.53482838905E+01  0.23526769567E+02  0.24197654836E+02  0.00000000000E+00 0.  1.
</event>
<event>
 7    1  0.5972636E-013  0.5052886E+02  0.7816164E-02  0.1300439E+00
        -11   -1    0    0    0    0  0.00000000000E+00  0.00000000000E+00  0.45593999997E+02  0.45594000000E+02  0.51100000000E-03 0.  1.
         11   -1    0    0    0    0 -0.00000000000E+00 -0.00000000000E+00 -0.45593999997E+02  0.45594000000E+02  0.51100000000E-03 0. -1.
    9900012    2    1    2    0    0 -0.11204000170E+02 -0.39071763274E+02  0.10164268782E+01  0.50528862912E+02  0.30000009307E+02 0.  0.
         12    1    1    2    0    0  0.11204000170E+02  0.39071763274E+02 -0.10164268782E+01  0.40659137088E+02  0.00000000000E+00 0. -1.
         11    1    3    3    0    0 -0.28876761132E+01 -0.28432837029E+02  0.13440443382E+02  0.31581805101E+02  0.51100000000E-03 0. -1.
        -11    1    3    3    0    0 -0.44800382579E+01 -0.38466023688E+01 -0.81128320221E+01  0.10034198336E+02  0.51100000000E-03 0.  1.
         12    1    3    3    0    0 -0.38362857994E+01 -0.67923238763E+01 -0.43111844820E+01  0.89128594745E+01  0.00000000000E+00 0. -1.
</event>
<event>
 7    1  0.5972636E-013  0.5052886E+02  0.7816164E-02  0.1300439E+00
        -11   -1    0    0    0    0  0.00000000000E+00  0.00000000000E+00  0.45593999997E+02  0.45594000000E+02  0.51100000000E-03 0. -1.
         11   -1    0    0    0    0 -0.00000000000E+00 -0.00000000000E+00 -0.45593999997E+02  0.45594000000E+02  0.51100000000E-03 0.  1.
    9900012    2    1    2    0    0  0.31834956244E+02  0.25223311220E+02 -0.18671050833E+01  0.50528856510E+02  0.29999989846E+02 0.  0.
         12    1    1    2    0    0 -0.31834956244E+02 -0.25223311220E+02  0.18671050833E+01  0.40659143490E+02  0.00000000000E+00 0. -1.
         11    1    3    3    0    0  0.31203960360E+01  0.18573918104E+02  0.55661279330E+01  0.19639477732E+02  0.51100000000E-03 0. -1.
        -11    1    3    3    0    0  0.17669579478E+02  0.55149123243E+01 -0.69623240118E+01  0.19776305337E+02  0.51100000000E-03 0.  1.
        -12    1    3    3    0    0  0.11044980730E+02  0.11344807916E+01 -0.47090900452E+00  0.11113073440E+02  0.00000000000E+00 0.  1.
</event>
<event>
 7    1  0.5972636E-013  0.5052886E+02  0.7816164E-02  0.1300439E+00
        -11   -1    0    0    0    0  0.00000000000E+00  0.00000000000E+00  0.45593999997E+02  0.45594000000E+02  0.51100000000E-03 0.  1.
         11   -1    0    0    0    0 -0.00000000000E+00 -0.00000000000E+00 -0.45593999997E+02  0.45594000000E+02  0.51100000000E-03 0. -1.
    9900012    2    1    2    0    0 -0.32017119220E+02 -0.96196012095E+01  0.23141590821E+02  0.50528857408E+02  0.29999992578E+02 0.  0.
         12    1    1    2    0    0  0.32017119220E+02  0.96196012095E+01 -0.23141590821E+02  0.40659142592E+02  0.00000000000E+00 0. -1.
         11    1    3    3    0    0 -0.14872072996E+02 -0.16664726880E+02  0.47274313348E+01  0.22830687341E+02  0.51100000000E-03 0. -1.
        -11    1    3    3    0    0 -0.16471299490E+02  0.67586120080E+01  0.12536055491E+02  0.21774646511E+02  0.51100000000E-03 0.  1.
         12    1    3    3    0    0 -0.67374673449E+00  0.28651366227E+00  0.58781039948E+01  0.59235235557E+01  0.00000000000E+00 0. -1.
</event>
<event>
 7    1  0.5972636E-013  0.5052886E+02  0.7816164E-02  0.1300439E+00
        -11   -1    0    0    0    0  0.00000000000E+00  0.00000000000E+00  0.45593999997E+02  0.45594000000E+02  0.51100000000E-03 0.  1.
         11   -1    0    0    0    0 -0.00000000000E+00 -0.00000000000E+00 -0.45593999997E+02  0.45594000000E+02  0.51100000000E-03 0. -1.
    9900012    2    1    2    0    0 -0.31855736373E+02 -0.89100973993E+01  0.23642928463E+02  0.50528857833E+02  0.29999993868E+02 0.  0.
         12    1    1    2    0    0  0.31855736373E+02  0.89100973993E+01 -0.23642928463E+02  0.40659142167E+02  0.00000000000E+00 0. -1.
         11    1    3    3    0    0 -0.18416759550E+02 -0.51259675197E+01  0.23104348913E+02  0.29987722726E+02  0.51100000000E-03 0.  1.
        -11    1    3    3    0    0 -0.56683106960E+01 -0.76194407937E+01 -0.45089325163E+01  0.10512663642E+02  0.51100000000E-03 0. -1.
        -12    1    3    3    0    0 -0.77706661266E+01  0.38353109141E+01  0.50475120656E+01  0.10028471464E+02  0.00000000000E+00 0.  1.
</event>
<event>
 7    1  0.5972636E-013  0.5052885E+02  0.7816164E-02  0.1300439E+00
        -11   -1    0    0    0    0  0.00000000000E+00  0.00000000000E+00  0.45593999997E+02  0.45594000000E+02  0.51100000000E-03 0.  1.
         11   -1    0    0    0    0 -0.00000000000E+00 -0.00000000000E+00 -0.45593999997E+02  0.45594000000E+02  0.51100000000E-03 0. -1.
    9900012    2    1    2    0    0 -0.35089988442E+02  0.14633834850E+02  0.14412146013E+02  0.50528851411E+02  0.29999974349E+02 0.  0.
         12    1    1    2    0    0  0.35089988442E+02 -0.14633834850E+02 -0.14412146013E+02  0.40659148589E+02  0.00000000000E+00 0. -1.
         11    1    3    3    0    0 -0.22638543820E+02 -0.88368768082E+00  0.18334133376E+02  0.29144896931E+02  0.51100000000E-03 0.  1.
        -11    1    3    3    0    0 -0.13200024045E+02  0.14534598834E+02 -0.30448233115E+01  0.19868722841E+02  0.51100000000E-03 0. -1.
         12    1    3    3    0    0  0.74857942341E+00  0.98292369686E+00 -0.87716405182E+00  0.15152316393E+01  0.00000000000E+00 0. -1.
</event>
<event>
 7    1  0.5972636E-013  0.5052886E+02  0.7816164E-02  0.1300439E+00
        -11   -1    0    0    0    0  0.00000000000E+00  0.00000000000E+00  0.45593999997E+02  0.45594000000E+02  0.51100000000E-03 0. -1.
         11   -1    0    0    0    0 -0.00000000000E+00 -0.00000000000E+00 -0.45593999997E+02  0.45594000000E+02  0.51100000000E-03 0.  1.
    9900012    2    1    2    0    0  0.40263161698E+02  0.56499028017E+01 -0.34903948282E+00  0.50528863017E+02  0.30000009627E+02 0.  0.
         12    1    1    2    0    0 -0.40263161698E+02 -0.56499028017E+01  0.34903948282E+00  0.40659136983E+02  0.00000000000E+00 0. -1.
         11    1    3    3    0    0  0.24549758203E+02 -0.67699179910E+01 -0.53263354287E+01  0.26017153318E+02  0.51100000000E-03 0. -1.
        -11    1    3    3    0    0  0.14502601723E+02  0.10879965531E+02  0.88477448898E+01  0.20173787364E+02  0.51100000000E-03 0.  1.
         12    1    3    3    0    0  0.12108017721E+01  0.15398552615E+01 -0.38704489439E+01  0.43379223351E+01  0.00000000000E+00 0. -1.
</event>
<event>
 7    1  0.5972636E-013  0.5052890E+02  0.7816164E-02  0.1300439E+00
        -11   -1    0    0    0    0  0.00000000000E+00  0.00000000000E+00  0.45593999997E+02  0.45594000000E+02  0.51100000000E-03 0.  1.
         11   -1    0    0    0    0 -0.00000000000E+00 -0.00000000000E+00 -0.45593999997E+02  0.45594000000E+02  0.51100000000E-03 0. -1.
    9900012    2    1    2    0    0  0.81575179329E+00  0.11210259122E+02  0.39074639131E+02  0.50528895437E+02  0.30000108172E+02 0.  0.
         12    1    1    2    0    0 -0.81575179329E+00 -0.11210259122E+02 -0.39074639131E+02  0.40659104563E+02  0.00000000000E+00 0. -1.
         11    1    3    3    0    0  0.26323431251E+01 -0.65969712549E+01  0.94850112875E+01  0.11849670858E+02  0.51100000000E-03 0. -1.
        -11    1    3    3    0    0  0.59947273560E+01  0.11482129975E+02  0.90162945416E+01  0.15781940070E+02  0.51100000000E-03 0.  1.
        -12    1    3    3    0    0 -0.78113186878E+01  0.63251004021E+01  0.20573333302E+02  0.22897284509E+02  0.00000000000E+00 0.  1.
</event>
<event>
 7    1  0.5972636E-013  0.5052886E+02  0.7816164E-02  0.1300439E+00
        -11   -1    0    0    0    0  0.00000000000E+00  0.00000000000E+00  0.45593999997E+02  0.45594000000E+02  0.51100000000E-03 0.  1.
         11   -1    0    0    0    0 -0.00000000000E+00 -0.00000000000E+00 -0.45593999997E+02  0.45594000000E+02  0.51100000000E-03 0. -1.
    9900012    2    1    2    0    0  0.34702259140E+02  0.20378618522E+02  0.57992134410E+01  0.50528858853E+02  0.29999996969E+02 0.  0.
         12    1    1    2    0    0 -0.34702259140E+02 -0.20378618522E+02 -0.57992134410E+01  0.40659141147E+02  0.00000000000E+00 0. -1.
         11    1    3    3    0    0  0.17588995326E+02  0.60556056462E+01 -0.11013440059E+02  0.21618024390E+02  0.51100000000E-03 0. -1.
        -11    1    3    3    0    0  0.14395228560E+02  0.13806271530E+02  0.11771600422E+02  0.23160447224E+02  0.51100000000E-03 0.  1.
         12    1    3    3    0    0  0.27180352542E+01  0.51674134527E+00  0.50410530781E+01  0.57503872389E+01  0.00000000000E+00 0. -1.
</event>
<event>
 7    1  0.5972636E-013  0.5052887E+02  0.7816164E-02  0.1300439E+00
        -11   -1    0    0    0    0  0.00000000000E+00  0.00000000000E+00  0.45593999997E+02  0.45594000000E+02  0.51100000000E-03 0. -1.
         11   -1    0    0    0    0 -0.00000000000E+00 -0.00000000000E+00 -0.45593999997E+02  0.45594000000E+02  0.51100000000E-03 0.  1.
    9900012    2    1    2    0    0  0.39548931671E+02 -0.16009998456E+01 -0.92996688007E+01  0.50528867734E+02  0.30000023964E+02 0.  0.
         12    1    1    2    0    0 -0.39548931671E+02  0.16009998456E+01  0.92996688007E+01  0.40659132266E+02  0.00000000000E+00 0. -1.
         11    1    3    3    0    0  0.69276908218E+01  0.47981393097E+01  0.28220467009E+01  0.88870123664E+01  0.51100000000E-03 0. -1.
        -11    1    3    3    0    0  0.70058498032E+01  0.73429635618E+00 -0.13273428943E+02  0.15026810665E+02  0.51100000000E-03 0.  1.
        -12    1    3    3    0    0  0.25615391046E+02 -0.71334355114E+01  0.11517134416E+01  0.26615044702E+02  0.00000000000E+00 0.  1.
</event>
<event>
 7    1  0.5972636E-013  0.5052887E+02  0.7816164E-02  0.1300439E+00
        -11   -1    0    0    0    0  0.00000000000E+00  0.00000000000E+00  0.45593999997E+02  0.45594000000E+02  0.51100000000E-03 0.  1.
         11   -1    0    0    0    0 -0.00000000000E+00 -0.00000000000E+00 -0.45593999997E+02  0.45594000000E+02  0.51100000000E-03 0. -1.
    9900012    2    1    2    0    0  0.27055573272E+02 -0.29261474122E+02  0.80577351048E+01  0.50528868087E+02  0.30000025037E+02 0.  0.
         12    1    1    2    0    0 -0.27055573272E+02  0.29261474122E+02 -0.80577351048E+01  0.40659131913E+02  0.00000000000E+00 0. -1.
         11    1    3    3    0    0 -0.15530550728E+01  0.11802670704E+01 -0.35243723608E+00  0.19822266983E+01  0.51100000000E-03 0. -1.
        -11    1    3    3    0    0  0.18854615899E+02 -0.31994247041E+02  0.10193362702E+02  0.38510167850E+02  0.51100000000E-03 0.  1.
        -12    1    3    3    0    0  0.97540124468E+01  0.15525058483E+01 -0.17831903615E+01  0.10036473538E+02  0.00000000000E+00 0.  1.
</event>
<event>
 7    1  0.5972636E-013  0.5052886E+02  0.7816164E-02  0.1300439E+00
        -11   -1    0    0    0    0  0.00000000000E+00  0.00000000000E+00  0.45593999997E+02  0.45594000000E+02  0.51100000000E-03 0. -1.
         11   -1    0    0    0    0 -0.00000000000E+00 -0.00000000000E+00 -0.45593999997E+02  0.45594000000E+02  0.51100000000E-03 0.  1.
    9900012    2    1    2    0    0 -0.20115669655E+02  0.32668656706E+02 -0.13464200015E+02  0.50528856149E+02  0.29999988751E+02 0.  0.
         12    1    1    2    0    0  0.20115669655E+02 -0.32668656706E+02  0.13464200015E+02  0.40659143851E+02  0.00000000000E+00 0. -1.
         11    1    3    3    0    0 -0.17280049115E+02  0.18619453119E+02 -0.14445374322E+02  0.29222473739E+02  0.51100000000E-03 0. -1.
        -11    1    3    3    0    0  0.47483021159E+01  0.65350952740E+00 -0.26689066078E+01  0.54860286573E+01  0.51100000000E-03 0.  1.
         12    1    3    3    0    0 -0.75839226554E+01  0.13395694060E+02  0.36500809148E+01  0.15820353753E+02  0.00000000000E+00 0. -1.
</event>
<event>
 7    1  0.5972636E-013  0.5052886E+02  0.7816164E-02  0.1300439E+00
        -11   -1    0    0    0    0  0.00000000000E+00  0.00000000000E+00  0.45593999997E+02  0.45594000000E+02  0.51100000000E-03 0. -1.
         11   -1    0    0    0    0 -0.00000000000E+00 -0.00000000000E+00 -0.45593999997E+02  0.45594000000E+02  0.51100000000E-03 0.  1.
    9900012    2    1    2    0    0 -0.38399321905E+02  0.11967076788E+02  0.59537250844E+01  0.50528859675E+02  0.29999999468E+02 0.  0.
         12    1    1    2    0    0  0.38399321905E+02 -0.11967076788E+02 -0.59537250844E+01  0.40659140325E+02  0.00000000000E+00 0. -1.
         11    1    3    3    0    0 -0.32526415579E+01  0.93384642509E+00  0.70119235007E+01  0.77858087371E+01  0.51100000000E-03 0. -1.
        -11    1    3    3    0    0 -0.24961907286E+02  0.17609847587E+02  0.24721235167E+00  0.30549380707E+02  0.51100000000E-03 0.  1.
         12    1    3    3    0    0 -0.10184773061E+02 -0.65766172244E+01 -0.13054107680E+01  0.12193670230E+02  0.00000000000E+00 0. -1.
</event>
<event>
 7    1  0.5972636E-013  0.5052886E+02  0.7816164E-02  0.1300439E+00
        -11   -1    0    0    0    0  0.00000000000E+00  0.00000000000E+00  0.45593999997E+02  0.45594000000E+02  0.51100000000E-03 0.  1.
         11   -1    0    0    0    0 -0.00000000000E+00 -0.00000000000E+00 -0.45593999997E+02  0.45594000000E+02  0.51100000000E-03 0. -1.
    9900012    2    1    2    0    0  0.74139954681E+01  0.74129098686E+01  0.39284179331E+02  0.50528864406E+02  0.30000013849E+02 0.  0.
         12    1    1    2    0    0 -0.74139954681E+01 -0.74129098686E+01 -0.39284179331E+02  0.40659135594E+02  0.00000000000E+00 0. -1.
         11    1    3    3    0    0 -0.63931569455E+01  0.10312759716E+02  0.25040209116E+02  0.27825124286E+02  0.51100000000E-03 0. -1.
        -11    1    3    3    0    0  0.10666596635E+02  0.22728400249E+01  0.59099026277E+01  0.12404395789E+02  0.51100000000E-03 0.  1.
         12    1    3    3    0    0  0.31405557787E+01 -0.51726898722E+01  0.83340675876E+01  0.10299344332E+02  0.00000000000E+00 0. -1.
</event>
<event>
 7    1  0.5972636E-013  0.5052887E+02  0.7816164E-02  0.1300439E+00
        -11   -1    0    0    0    0  0.00000000000E+00  0.00000000000E+00  0.45593999997E+02  0.45594000000E+02  0.51100000000E-03 0. -1.
         11   -1    0    0    0    0 -0.00000000000E+00 -0.00000000000E+00 -0.45593999997E+02  0.45594000000E+02  0.51100000000E-03 0.  1.
    9900012    2    1    2    0    0  0.46215928413E+01 -0.18058331688E+02 -0.36134500154E+02  0.50528873532E+02  0.30000041587E+02 0.  0.
         12    1    1    2    0    0 -0.46215928413E+01  0.18058331688E+02  0.36134500154E+02  0.40659126468E+02  0.00000000000E+00 0. -1.
         11    1    3    3    0    0  0.13218718493E+02 -0.54569206374E+01 -0.15056285625E+02  0.20765457821E+02  0.51100000000E-03 0. -1.
        -11    1    3    3    0    0 -0.97231466290E+01 -0.13174560179E+02 -0.22521838001E+02  0.27844960109E+02  0.51100000000E-03 0.  1.
         12    1    3    3    0    0  0.11260209773E+01  0.57314912811E+00  0.14436234719E+01  0.19184556010E+01  0.00000000000E+00 0. -1.
</event>
<event>
 7    1  0.5972636E-013  0.5052886E+02  0.7816164E-02  0.1300439E+00
        -11   -1    0    0    0    0  0.00000000000E+00  0.00000000000E+00  0.45593999997E+02  0.45594000000E+02  0.51100000000E-03 0.  1.
         11   -1    0    0    0    0 -0.00000000000E+00 -0.00000000000E+00 -0.45593999997E+02  0.45594000000E+02  0.51100000000E-03 0. -1.
    9900012    2    1    2    0    0  0.27623118540E+02  0.18655150820E+02  0.23283352967E+02  0.50528857666E+02  0.29999993360E+02 0.  0.
         12    1    1    2    0    0 -0.27623118540E+02 -0.18655150820E+02 -0.23283352967E+02  0.40659142334E+02  0.00000000000E+00 0. -1.
         11    1    3    3    0    0  0.81719455877E+01  0.29719911847E+01  0.23130307234E+01  0.89979740874E+01  0.51100000000E-03 0. -1.
        -11    1    3    3    0    0  0.56217726776E+01 -0.12821560664E+01  0.18649341231E+02  0.19520404217E+02  0.51100000000E-03 0.  1.
        -12    1    3    3    0    0  0.13829400275E+02  0.16965315702E+02  0.23209810127E+01  0.22010479361E+02  0.00000000000E+00 0.  1.
</event>
<event>
 7    1  0.5972636E-013  0.5052886E+02  0.7816164E-02  0.1300439E+00
        -11   -1    0    0    0    0  0.00000000000E+00  0.00000000000E+00  0.45593999997E+02  0.45594000000E+02  0.51100000000E-03 0. -1.
         11   -1    0    0    0    0 -0.00000000000E+00 -0.00000000000E+00 -0.45593999997E+02  0.45594000000E+02  0.51100000000E-03 0.  1.
    9900012    2    1    2    0    0 -0.33312632699E+02  0.73542668564E+01  0.22121237101E+02  0.50528857495E+02  0.29999992841E+02 0.  0.
         12    1    1    2    0    0  0.33312632699E+02 -0.73542668564E+01 -0.22121237101E+02  0.40659142505E+02  0.00000000000E+00 0. -1.
         11    1    3    3    0    0 -0.21472409148E+02 -0.13585557697E+01  0.17550937183E+02  0.27765903995E+02  0.51100000000E-03 0.  1.
        -11    1    3    3    0    0  0.16894409883E+01 -0.18675480120E+01 -0.30649626338E+01  0.39668555100E+01  0.51100000000E-03 0. -1.
        -12    1    3    3    0    0 -0.13529664539E+02  0.10580370638E+02  0.76352625520E+01  0.18796097989E+02  0.00000000000E+00 0.  1.
</event>
<event>
 7    1  0.5972636E-013  0.5052887E+02  0.7816164E-02  0.1300439E+00
        -11   -1    0    0    0    0  0.00000000000E+00  0.00000000000E+00  0.45593999997E+02  0.45594000000E+02  0.51100000000E-03 0.  1.
         11   -1    0    0    0    0 -0.00000000000E+00 -0.00000000000E+00 -0.45593999997E+02  0.45594000000E+02  0.51100000000E-03 0. -1.
    9900012    2    1    2    0    0  0.23027928676E+02 -0.26064569700E+01  0.33407866056E+02  0.50528872716E+02  0.30000039107E+02 0.  0.
         12    1    1    2    0    0 -0.23027928676E+02  0.26064569700E+01 -0.33407866056E+02  0.40659127284E+02  0.00000000000E+00 0. -1.
         11    1    3    3    0    0  0.15214420286E+02 -0.96523843419E+01  0.59720842949E+01  0.18981909788E+02  0.51100000000E-03 0. -1.
        -11    1    3    3    0    0  0.80361472844E+01  0.35900642473E+01  0.26552217330E+02  0.27972995368E+02  0.51100000000E-03 0.  1.
         12    1    3    3    0    0 -0.22263889358E+00  0.34558631246E+01  0.88356443182E+00  0.35739675597E+01  0.00000000000E+00 0. -1.
</event>
<event>
 7    1  0.5972636E-013  0.5052885E+02  0.7816164E-02  0.1300439E+00
        -11   -1    0    0    0    0  0.00000000000E+00  0.00000000000E+00  0.45593999997E+02  0.45594000000E+02  0.51100000000E-03 0.  1.
         11   -1    0    0    0    0 -0.00000000000E+00 -0.00000000000E+00 -0.45593999997E+02  0.45594000000E+02  0.51100000000E-03 0. -1.
    9900012    2    1    2    0    0 -0.25317299247E+02 -0.21773502086E+02  0.23197316608E+02  0.50528849344E+02  0.29999968066E+02 0.  0.
         12    1    1    2    0    0  0.25317299247E+02  0.21773502086E+02 -0.23197316608E+02  0.40659150656E+02  0.00000000000E+00 0. -1.
         11    1    3    3    0    0 -0.58183027187E+01  0.29248735843E+01  0.40832058762E+01  0.76863582078E+01  0.51100000000E-03 0. -1.
        -11    1    3    3    0    0  0.18950733164E+01 -0.14331887117E+02  0.56522367339E+01  0.15522308835E+02  0.51100000000E-03 0.  1.
        -12    1    3    3    0    0 -0.21394069845E+02 -0.10366488553E+02  0.13461873998E+02  0.27320182302E+02  0.00000000000E+00 0.  1.
</event>
<event>
 7    1  0.5972636E-013  0.5052886E+02  0.7816164E-02  0.1300439E+00
        -11   -1    0    0    0    0  0.00000000000E+00  0.00000000000E+00  0.45593999997E+02  0.45594000000E+02  0.51100000000E-03 0. -1.
         11   -1    0    0    0    0 -0.00000000000E+00 -0.00000000000E+00 -0.45593999997E+02  0.45594000000E+02  0.51100000000E-03 0.  1.
    9900012    2    1    2    0    0  0.24029671624E+02  0.24809702417E+02  0.21452714151E+02  0.50528863305E+02  0.30000010502E+02 0.  0.
         12    1    1    2    0    0 -0.24029671624E+02 -0.24809702417E+02 -0.21452714151E+02  0.40659136695E+02  0.00000000000E+00 0. -1.
         11    1    3    3    0    0 -0.48063345896E+01  0.58703612997E+01  0.21723522383E+01  0.78918380929E+01  0.51100000000E-03 0. -1.
        -11    1    3    3    0    0  0.11891573916E+02  0.12674880016E+02  0.17560587752E+01  0.17468424551E+02  0.51100000000E-03 0.  1.
         12    1    3    3    0    0  0.16944432298E+02  0.62644611007E+01  0.17524303137E+02  0.25168600661E+02  0.00000000000E+00 0. -1.
</event>
<event>
 7    1  0.5972636E-013  0.5052886E+02  0.7816164E-02  0.1300439E+00
        -11   -1    0    0    0    0  0.00000000000E+00  0.00000000000E+00  0.45593999997E+02  0.45594000000E+02  0.51100000000E-03 0.  1.
         11   -1    0    0    0    0 -0.00000000000E+00 -0.00000000000E+00 -0.45593999997E+02  0.45594000000E+02  0.51100000000E-03 0. -1.
    9900012    2    1    2    0    0 -0.34682653305E+02  0.21100014780E+02 -0.22513752113E+01  0.50528858908E+02  0.29999997136E+02 0.  0.
         12    1    1    2    0    0  0.34682653305E+02 -0.21100014780E+02  0.22513752113E+01  0.40659141092E+02  0.00000000000E+00 0. -1.
         11    1    3    3    0    0 -0.19406037874E+01  0.51724977891E+01 -0.10207674014E+02  0.11606777566E+02  0.51100000000E-03 0. -1.
        -11    1    3    3    0    0 -0.11330733134E+02  0.10170647069E+02 -0.39147092088E+00  0.15230916745E+02  0.51100000000E-03 0.  1.
         12    1    3    3    0    0 -0.21411316384E+02  0.57568699212E+01  0.83477697231E+01  0.23691164597E+02  0.00000000000E+00 0. -1.
</event>
<event>
 7    1  0.5972636E-013  0.5052887E+02  0.7816164E-02  0.1300439E+00
        -11   -1    0    0    0    0  0.00000000000E+00  0.00000000000E+00  0.45593999997E+02  0.45594000000E+02  0.51100000000E-03 0. -1.
         11   -1    0    0    0    0 -0.00000000000E+00 -0.00000000000E+00 -0.45593999997E+02  0.45594000000E+02  0.51100000000E-03 0.  1.
    9900012    2    1    2    0    0  0.62946698060E+01  0.35043178643E+02 -0.19634611583E+02  0.50528865610E+02  0.30000017507E+02 0.  0.
         12    1    1    2    0    0 -0.62946698060E+01 -0.35043178643E+02  0.19634611583E+02  0.40659134390E+02  0.00000000000E+00 0. -1.
         11    1    3    3    0    0  0.54527103087E+01  0.13224825765E+01 -0.74411914980E+01  0.93194603409E+01  0.51100000000E-03 0. -1.
        -11    1    3    3    0    0 -0.14526220253E+01  0.35165815610E+02 -0.78051316286E+01  0.36050863766E+02  0.51100000000E-03 0.  1.
        -12    1    3    3    0    0  0.22945815225E+01 -0.14451195439E+01 -0.43882884559E+01  0.51585415024E+01  0.00000000000E+00 0.  1.
</event>
<event>
 7    1  0.5972636E-013  0.5052888E+02  0.7816164E-02  0.1300439E+00
        -11   -1    0    0    0    0  0.00000000000E+00  0.00000000000E+00  0.45593999997E+02  0.45594000000E+02  0.51100000000E-03 0. -1.
         11   -1    0    0    0    0 -0.00000000000E+00 -0.00000000000E+00 -0.45593999997E+02  0.45594000000E+02  0.51100000000E-03 0.  1.
    9900012    2    1    2    0    0 -0.32425599383E+02 -0.24299063907E+02  0.33615354089E+01  0.50528881436E+02  0.30000065613E+02 0.  0.
         12    1    1    2    0    0  0.32425599383E+02  0.24299063907E+02 -0.33615354089E+01  0.40659118564E+02  0.00000000000E+00 0. -1.
         11    1    3    3    0    0 -0.17806975702E+02 -0.15906075890E+02  0.16418114585E+02  0.28976647851E+02  0.51100000000E-03 0. -1.
        -11    1    3    3    0    0 -0.29211429039E+01 -0.29506722292E+01 -0.41820776316E+01  0.58931584101E+01  0.51100000000E-03 0.  1.
         12    1    3    3    0    0 -0.11697480777E+02 -0.54423157873E+01 -0.88745015448E+01  0.15659075175E+02  0.00000000000E+00 0. -1.
</event>
<event>
 7    1  0.5972636E-013  0.5052886E+02  0.7816164E-02  0.1300439E+00
        -11   -1    0    0    0    0  0.00000000000E+00  0.00000000000E+00  0.45593999997E+02  0.45594000000E+02  0.51100000000E-03 0.  1.
         11   -1    0    0    0    0 -0.00000000000E+00 -0.00000000000E+00 -0.45593999997E+02  0.45594000000E+02  0.51100000000E-03 0. -1.
    9900012    2    1    2    0    0 -0.29853471224E+02 -0.78562324547E+01  0.26461580456E+02  0.50528863601E+02  0.30000011401E+02 0.  0.
         12    1    1    2    0    0  0.29853471224E+02  0.78562324547E+01 -0.26461580456E+02  0.40659136399E+02  0.00000000000E+00 0. -1.
         11    1    3    3    0    0 -0.42566092618E+01  0.69817597735E+01  0.14391418927E+02  0.16552239453E+02  0.51100000000E-03 0. -1.
        -11    1    3    3    0    0 -0.81256476725E+01 -0.91543880738E+00 -0.76350888192E+00  0.82126198245E+01  0.51100000000E-03 0.  1.
         12    1    3    3    0    0 -0.17471214290E+02 -0.13922553421E+02  0.12833670411E+02  0.25764004323E+02  0.00000000000E+00 0. -1.
</event>
<event>
 7    1  0.5972636E-013  0.5052886E+02  0.7816164E-02  0.1300439E+00
        -11   -1    0    0    0    0  0.00000000000E+00  0.00000000000E+00  0.45593999997E+02  0.45594000000E+02  0.51100000000E-03 0.  1.
         11   -1    0    0    0    0 -0.00000000000E+00 -0.00000000000E+00 -0.45593999997E+02  0.45594000000E+02  0.51100000000E-03 0. -1.
    9900012    2    1    2    0    0 -0.38546072182E+02 -0.24621941743E+01  0.12700547710E+02  0.50528855973E+02  0.29999988217E+02 0.  0.
         12    1    1    2    0    0  0.38546072182E+02  0.24621941743E+01 -0.12700547710E+02  0.40659144027E+02  0.00000000000E+00 0. -1.
         11    1    3    3    0    0 -0.15619897544E+02  0.11364285348E+02  0.12162575393E+01  0.19354778826E+02  0.51100000000E-03 0. -1.
        -11    1    3    3    0    0 -0.11841412879E+02 -0.32206773280E+01  0.45571459567E+00  0.12280044686E+02  0.51100000000E-03 0.  1.
         12    1    3    3    0    0 -0.11084761759E+02 -0.10605802194E+02  0.11028575575E+02  0.18894032461E+02  0.00000000000E+00 0. -1.
</event>
<event>
 7    1  0.5972636E-013  0.5052886E+02  0.7816164E-02  0.1300439E+00
        -11   -1    0    0    0    0  0.00000000000E+00  0.00000000000E+00  0.45593999997E+02  0.45594000000E+02  0.51100000000E-03 0.  1.
         11   -1    0    0    0    0 -0.00000000000E+00 -0.00000000000E+00 -0.45593999997E+02  0.45594000000E+02  0.51100000000E-03 0. -1.
    9900012    2    1    2    0    0 -0.37120445121E+02  0.33969154134E+00  0.16586837556E+02  0.50528855685E+02  0.29999987339E+02 0.  0.
         12    1    1    2    0    0  0.37120445121E+02 -0.33969154134E+00 -0.16586837556E+02  0.40659144315E+02  0.00000000000E+00 0. -1.
         11    1    3    3    0    0 -0.92178160336E+01  0.57766295373E+00  0.49749526714E+01  0.10490566298E+02  0.51100000000E-03 0.  1.
        -11    1    3    3    0    0 -0.20649610308E+01 -0.86741911124E+01  0.91033811515E+01  0.12742731425E+02  0.51100000000E-03 0. -1.
        -12    1    3    3    0    0 -0.25837668057E+02  0.84362197000E+01  0.25085037333E+01  0.27295557961E+02  0.00000000000E+00 0.  1.
</event>
<event>
 7    1  0.5972636E-013  0.5052886E+02  0.7816164E-02  0.1300439E+00
        -11   -1    0    0    0    0  0.00000000000E+00  0.00000000000E+00  0.45593999997E+02  0.45594000000E+02  0.51100000000E-03 0.  1.
         11   -1    0    0    0    0 -0.00000000000E+00 -0.00000000000E+00 -0.45593999997E+02  0.45594000000E+02  0.51100000000E-03 0. -1.
    9900012    2    1    2    0    0  0.15035724920E+01 -0.33876813020E+02  0.22433598423E+02  0.50528861681E+02  0.30000005567E+02 0.  0.
         12    1    1    2    0    0 -0.15035724920E+01  0.33876813020E+02 -0.22433598423E+02  0.40659138319E+02  0.00000000000E+00 0. -1.
         11    1    3    3    0    0 -0.61962992656E+01 -0.18398188381E+02  0.19041242726E+02  0.27192947341E+02  0.51100000000E-03 0. -1.
        -11    1    3    3    0    0  0.91204384872E+01 -0.17437755332E+02  0.51540654194E+01  0.20342617821E+02  0.51100000000E-03 0.  1.
         12    1    3    3    0    0 -0.14205667296E+01  0.19591306926E+01 -0.17617097229E+01  0.29932965192E+01  0.00000000000E+00 0. -1.
</event>
<event>
 7    1  0.5972636E-013  0.5052886E+02  0.7816164E-02  0.1300439E+00
        -11   -1    0    0    0    0  0.00000000000E+00  0.00000000000E+00  0.45593999997E+02  0.45594000000E+02  0.51100000000E-03 0. -1.
         11   -1    0    0    0    0 -0.00000000000E+00 -0.00000000000E+00 -0.45593999997E+02  0.45594000000E+02  0.51100000000E-03 0.  1.
    9900012    2    1    2    0    0  0.38494660241E+02 -0.11455356745E+02 -0.63326044365E+01  0.50528856573E+02  0.29999990040E+02 0.  0.
         12    1    1    2    0    0 -0.38494660241E+02  0.11455356745E+02  0.63326044365E+01  0.40659143427E+02  0.00000000000E+00 0. -1.
         11    1    3    3    0    0  0.12804843782E+02  0.38555082071E+01  0.28331025395E+01  0.13669507602E+02  0.51100000000E-03 0. -1.
        -11    1    3    3    0    0  0.26346183774E+02 -0.16530448643E+02 -0.38191166047E+01  0.31336285416E+02  0.51100000000E-03 0.  1.
        -12    1    3    3    0    0 -0.65636731501E+00  0.12195836910E+01 -0.53465903712E+01  0.55230635547E+01  0.00000000000E+00 0.  1.
</event>
<event>
 7    1  0.5972636E-013  0.5052886E+02  0.7816164E-02  0.1300439E+00
        -11   -1    0    0    0    0  0.00000000000E+00  0.00000000000E+00  0.45593999997E+02  0.45594000000E+02  0.51100000000E-03 0.  1.
         11   -1    0    0    0    0 -0.00000000000E+00 -0.00000000000E+00 -0.45593999997E+02  0.45594000000E+02  0.51100000000E-03 0. -1.
    9900012    2    1    2    0    0 -0.62905923553E+01  0.31128885709E+02  0.25388713872E+02  0.50528857489E+02  0.29999992823E+02 0.  0.
         12    1    1    2    0    0  0.62905923553E+01 -0.31128885709E+02 -0.25388713872E+02  0.40659142511E+02  0.00000000000E+00 0. -1.
         11    1    3    3    0    0 -0.16240483075E+02  0.15819314485E+02  0.11953360353E+02  0.25629803457E+02  0.51100000000E-03 0. -1.
        -11    1    3    3    0    0  0.11038141032E+02  0.14535518501E+02  0.91625083953E+01  0.20422375373E+02  0.51100000000E-03 0.  1.
        -12    1    3    3    0    0 -0.10882503127E+01  0.77405272398E+00  0.42728451234E+01  0.44766786584E+01  0.00000000000E+00 0.  1.
</event>
<event>
 7    1  0.5972636E-013  0.5052886E+02  0.7816164E-02  0.1300439E+00
        -11   -1    0    0    0    0  0.00000000000E+00  0.00000000000E+00  0.45593999997E+02  0.45594000000E+02  0.51100000000E-03 0.  1.
         11   -1    0    0    0    0 -0.00000000000E+00 -0.00000000000E+00 -0.45593999997E+02  0.45594000000E+02  0.51100000000E-03 0. -1.
    9900012    2    1    2    0    0  0.10769783438E+02 -0.30396606041E+02  0.24763348644E+02  0.50528864124E+02  0.30000012992E+02 0.  0.
         12    1    1    2    0    0 -0.10769783438E+02  0.30396606041E+02 -0.24763348644E+02  0.40659135876E+02  0.00000000000E+00 0. -1.
         11    1    3    3    0    0  0.56784997598E+01 -0.71432390579E+01  0.15077538579E+02  0.17623943759E+02  0.51100000000E-03 0. -1.
        -11    1    3    3    0    0 -0.67784729055E+01 -0.83694190277E+01 -0.14225380021E+01  0.10863631272E+02  0.51100000000E-03 0.  1.
        -12    1    3    3    0    0  0.11869756584E+02 -0.14883947955E+02  0.11108348067E+02  0.22041289093E+02  0.00000000000E+00 0.  1.
</event>
<event>
 7    1  0.5972636E-013  0.5052887E+02  0.7816164E-02  0.1300439E+00
        -11   -1    0    0    0    0  0.00000000000E+00  0.00000000000E+00  0.45593999997E+02  0.45594000000E+02  0.51100000000E-03 0. -1.
         11   -1    0    0    0    0 -0.00000000000E+00 -0.00000000000E+00 -0.45593999997E+02  0.45594000000E+02  0.51100000000E-03 0.  1.
    9900012    2    1    2    0    0 -0.36151449899E+02 -0.18600398043E+02 -0.51282674286E+00  0.50528866605E+02  0.30000020533E+02 0.  0.
         12    1    1    2    0    0  0.36151449899E+02  0.18600398043E+02  0.51282674286E+00  0.40659133395E+02  0.00000000000E+00 0. -1.
         11    1    3    3    0    0  0.48242619372E+00 -0.33308212444E+01  0.34120268597E+01  0.47926018766E+01  0.51100000000E-03 0. -1.
        -11    1    3    3    0    0 -0.31403432278E+02 -0.55415066899E+01 -0.96217321962E+01  0.33308581266E+02  0.51100000000E-03 0.  1.
        -12    1    3    3    0    0 -0.52304438145E+01 -0.97280701086E+01  0.56968785936E+01  0.12427683463E+02  0.00000000000E+00 0.  1.
</event>
<event>
 7    1  0.5972636E-013  0.5052886E+02  0.7816164E-02  0.1300439E+00
        -11   -1    0    0    0    0  0.00000000000E+00  0.00000000000E+00  0.45593999997E+02  0.45594000000E+02  0.51100000000E-03 0. -1.
         11   -1    0    0    0    0 -0.00000000000E+00 -0.00000000000E+00 -0.45593999997E+02  0.45594000000E+02  0.51100000000E-03 0.  1.
    9900012    2    1    2    0    0 -0.17778193756E+02 -0.34477782924E+01 -0.36403493703E+02  0.50528859549E+02  0.29999999087E+02 0.  0.
         12    1    1    2    0    0  0.17778193756E+02  0.34477782924E+01  0.36403493703E+02  0.40659140451E+02  0.00000000000E+00 0. -1.
         11    1    3    3    0    0  0.38346703335E+01  0.19143970268E+01 -0.88163883705E+01  0.98029748905E+01  0.51100000000E-03 0. -1.
        -11    1    3    3    0    0 -0.90675775972E+01 -0.11934099961E+02 -0.94662736283E+01  0.17727211908E+02  0.51100000000E-03 0.  1.
        -12    1    3    3    0    0 -0.12545286492E+02  0.65719246414E+01 -0.18120831704E+02  0.22998672751E+02  0.00000000000E+00 0.  1.
</event>
<event>
 7    1  0.5972636E-013  0.5052886E+02  0.7816164E-02  0.1300439E+00
        -11   -1    0    0    0    0  0.00000000000E+00  0.00000000000E+00  0.45593999997E+02  0.45594000000E+02  0.51100000000E-03 0.  1.
         11   -1    0    0    0    0 -0.00000000000E+00 -0.00000000000E+00 -0.45593999997E+02  0.45594000000E+02  0.51100000000E-03 0. -1.
    9900012    2    1    2    0    0  0.33114003189E+02 -0.12589838974E+02  0.19953052734E+02  0.50528861224E+02  0.30000004177E+02 0.  0.
         12    1    1    2    0    0 -0.33114003189E+02  0.12589838974E+02 -0.19953052734E+02  0.40659138776E+02  0.00000000000E+00 0. -1.
         11    1    3    3    0    0  0.33534098133E+01 -0.34852030829E+01 -0.22578694492E+01  0.53375998928E+01  0.51100000000E-03 0. -1.
        -11    1    3    3    0    0  0.22215789691E+02  0.52409194864E+00  0.24136166462E+02  0.32808086133E+02  0.51100000000E-03 0.  1.
        -12    1    3    3    0    0  0.75448036845E+01 -0.96287278399E+01 -0.19252442790E+01  0.12383175198E+02  0.00000000000E+00 0.  1.
</event>
<event>
 7    1  0.5972636E-013  0.5052886E+02  0.7816164E-02  0.1300439E+00
        -11   -1    0    0    0    0  0.00000000000E+00  0.00000000000E+00  0.45593999997E+02  0.45594000000E+02  0.51100000000E-03 0.  1.
         11   -1    0    0    0    0 -0.00000000000E+00 -0.00000000000E+00 -0.45593999997E+02  0.45594000000E+02  0.51100000000E-03 0. -1.
    9900012    2    1    2    0    0  0.25196717761E+02 -0.19242083257E+02  0.25456501163E+02  0.50528858279E+02  0.29999995226E+02 0.  0.
         12    1    1    2    0    0 -0.25196717761E+02  0.19242083257E+02 -0.25456501163E+02  0.40659141721E+02  0.00000000000E+00 0. -1.
         11    1    3    3    0    0 -0.57445450854E+00 -0.12480208756E+01  0.16181189241E+02  0.16239410075E+02  0.51100000000E-03 0. -1.
        -11    1    3    3    0    0  0.17148621323E+02 -0.58574601550E+01  0.49054599585E+01  0.18773614208E+02  0.51100000000E-03 0.  1.
         12    1    3    3    0    0  0.86225509463E+01 -0.12136602226E+02  0.43698519642E+01  0.15515833996E+02  0.00000000000E+00 0. -1.
</event>
<event>
 7    1  0.5972636E-013  0.5052887E+02  0.7816164E-02  0.1300439E+00
        -11   -1    0    0    0    0  0.00000000000E+00  0.00000000000E+00  0.45593999997E+02  0.45594000000E+02  0.51100000000E-03 0.  1.
         11   -1    0    0    0    0 -0.00000000000E+00 -0.00000000000E+00 -0.45593999997E+02  0.45594000000E+02  0.51100000000E-03 0. -1.
    9900012    2    1    2    0    0 -0.12202283371E+02 -0.26222624682E+02  0.28576971849E+02  0.50528867142E+02  0.30000022166E+02 0.  0.
         12    1    1    2    0    0  0.12202283371E+02  0.26222624682E+02 -0.28576971849E+02  0.40659132858E+02  0.00000000000E+00 0. -1.
         11    1    3    3    0    0  0.60694585850E+01 -0.61654109532E+00  0.35842938163E+01  0.70757058207E+01  0.51100000000E-03 0. -1.
        -11    1    3    3    0    0 -0.12934804312E+02 -0.20027150459E+02  0.26436279409E+02  0.35598775082E+02  0.51100000000E-03 0.  1.
         12    1    3    3    0    0 -0.53369376440E+01 -0.55789331285E+01 -0.14436013769E+01  0.78543862398E+01  0.00000000000E+00 0. -1.
</event>
<event>
 7    1  0.5972636E-013  0.5052886E+02  0.7816164E-02  0.1300439E+00
        -11   -1    0    0    0    0  0.00000000000E+00  0.00000000000E+00  0.45593999997E+02  0.45594000000E+02  0.51100000000E-03 0. -1.
         11   -1    0    0    0    0 -0.00000000000E+00 -0.00000000000E+00 -0.45593999997E+02  0.45594000000E+02  0.51100000000E-03 0.  1.
    9900012    2    1    2    0    0 -0.32504037721E+02  0.24306507511E+02  0.24180342942E+01  0.50528860002E+02  0.30000000461E+02 0.  0.
         12    1    1    2    0    0  0.32504037721E+02 -0.24306507511E+02 -0.24180342942E+01  0.40659139998E+02  0.00000000000E+00 0. -1.
         11    1    3    3    0    0 -0.65331513736E-01  0.14487929436E+02  0.72529030847E+01  0.16202128593E+02  0.51100000000E-03 0. -1.
        -11    1    3    3    0    0 -0.14698921705E+02  0.54252957592E+01 -0.30689665763E+01  0.15965922756E+02  0.51100000000E-03 0.  1.
         12    1    3    3    0    0 -0.17739784503E+02  0.43932823163E+01 -0.17659022142E+01  0.18360808652E+02  0.00000000000E+00 0. -1.
</event>
<event>
 7    1  0.5972636E-013  0.5052886E+02  0.7816164E-02  0.1300439E+00
        -11   -1    0    0    0    0  0.00000000000E+00  0.00000000000E+00  0.45593999997E+02  0.45594000000E+02  0.51100000000E-03 0. -1.
         11   -1    0    0    0    0 -0.00000000000E+00 -0.00000000000E+00 -0.45593999997E+02  0.45594000000E+02  0.51100000000E-03 0.  1.
    9900012    2    1    2    0    0 -0.38662539947E+02  0.11650696420E+01 -0.12530613724E+02  0.50528860035E+02  0.30000000563E+02 0.  0.
         12    1    1    2    0    0  0.38662539947E+02 -0.11650696420E+01  0.12530613724E+02  0.40659139965E+02  0.00000000000E+00 0. -1.
         11    1    3    3    0    0 -0.25256893680E+01  0.62873190958E+01  0.17976393340E+01  0.70100638822E+01  0.51100000000E-03 0. -1.
        -11    1    3    3    0    0 -0.27042330084E+02 -0.11107893712E+02 -0.14492947609E+02  0.32630023747E+02  0.51100000000E-03 0.  1.
         12    1    3    3    0    0 -0.90945204944E+01  0.59856442579E+01  0.16469455112E+00  0.10888772406E+02  0.00000000000E+00 0. -1.
</event>
<event>
 7    1  0.5972636E-013  0.5052890E+02  0.7816164E-02  0.1300439E+00
        -11   -1    0    0    0    0  0.00000000000E+00  0.00000000000E+00  0.45593999997E+02  0.45594000000E+02  0.51100000000E-03 0.  1.
         11   -1    0    0    0    0 -0.00000000000E+00 -0.00000000000E+00 -0.45593999997E+02  0.45594000000E+02  0.51100000000E-03 0. -1.
    9900012    2    1    2    0    0  0.16046086934E+02 -0.16619263916E+02  0.33458710266E+02  0.50528903457E+02  0.30000132549E+02 0.  0.
         12    1    1    2    0    0 -0.16046086934E+02  0.16619263916E+02 -0.33458710266E+02  0.40659096543E+02  0.00000000000E+00 0. -1.
         11    1    3    3    0    0  0.48315411505E+01  0.55333772830E+01  0.15155243798E+01  0.75005912068E+01  0.51100000000E-03 0. -1.
        -11    1    3    3    0    0  0.11994483635E+02 -0.21038101144E+02  0.33255101154E+02  0.41138438113E+02  0.51100000000E-03 0.  1.
         12    1    3    3    0    0 -0.77993785131E+00 -0.11145400549E+01 -0.13119152675E+01  0.18898741374E+01  0.00000000000E+00 0. -1.
</event>
<event>
 7    1  0.5972636E-013  0.5052885E+02  0.7816164E-02  0.1300439E+00
        -11   -1    0    0    0    0  0.00000000000E+00  0.00000000000E+00  0.45593999997E+02  0.45594000000E+02  0.51100000000E-03 0. -1.
         11   -1    0    0    0    0 -0.00000000000E+00 -0.00000000000E+00 -0.45593999997E+02  0.45594000000E+02  0.51100000000E-03 0.  1.
    9900012    2    1    2    0    0 -0.12019346530E+01 -0.16227030362E+02 -0.37261307359E+02  0.50528853583E+02  0.29999980950E+02 0.  0.
         12    1    1    2    0    0  0.12019346530E+01  0.16227030362E+02  0.37261307359E+02  0.40659146417E+02  0.00000000000E+00 0. -1.
         11    1    3    3    0    0 -0.29817131575E+01  0.69431345393E+00 -0.24905054592E+01  0.39465557426E+01  0.51100000000E-03 0. -1.
        -11    1    3    3    0    0 -0.86923932828E-01 -0.18118066083E+02 -0.81459215802E+01  0.19865243844E+02  0.51100000000E-03 0.  1.
        -12    1    3    3    0    0  0.18667024374E+01  0.11967222666E+01 -0.26624880320E+02  0.26717053996E+02  0.00000000000E+00 0.  1.
</event>
<event>
 7    1  0.5972636E-013  0.5052886E+02  0.7816164E-02  0.1300439E+00
        -11   -1    0    0    0    0  0.00000000000E+00  0.00000000000E+00  0.45593999997E+02  0.45594000000E+02  0.51100000000E-03 0.  1.
         11   -1    0    0    0    0 -0.00000000000E+00 -0.00000000000E+00 -0.45593999997E+02  0.45594000000E+02  0.51100000000E-03 0. -1.
    9900012    2    1    2    0    0 -0.25699440632E+02  0.27947052444E+02 -0.14548757435E+02  0.50528864101E+02  0.30000012922E+02 0.  0.
         12    1    1    2    0    0  0.25699440632E+02 -0.27947052444E+02  0.14548757435E+02  0.40659135899E+02  0.00000000000E+00 0. -1.
         11    1    3    3    0    0 -0.10693415211E+02 -0.81965583325E+00 -0.12533084761E+02  0.16495429016E+02  0.51100000000E-03 0. -1.
        -11    1    3    3    0    0 -0.10363947340E+02  0.20052878964E+02 -0.60474067645E+01  0.23368793038E+02  0.51100000000E-03 0.  1.
         12    1    3    3    0    0 -0.46420780814E+01  0.87138293132E+01  0.40317340897E+01  0.10664642047E+02  0.00000000000E+00 0. -1.
</event>
<event>
 7    1  0.5972636E-013  0.5052886E+02  0.7816164E-02  0.1300439E+00
        -11   -1    0    0    0    0  0.00000000000E+00  0.00000000000E+00  0.45593999997E+02  0.45594000000E+02  0.51100000000E-03 0.  1.
         11   -1    0    0    0    0 -0.00000000000E+00 -0.00000000000E+00 -0.45593999997E+02  0.45594000000E+02  0.51100000000E-03 0. -1.
    9900012    2    1    2    0    0 -0.24879954572E+02 -0.13721798657E+02  0.29083769862E+02  0.50528861209E+02  0.30000004130E+02 0.  0.
         12    1    1    2    0    0  0.24879954572E+02  0.13721798657E+02 -0.29083769862E+02  0.40659138791E+02  0.00000000000E+00 0. -1.
         11    1    3    3    0    0 -0.12735719699E+01  0.17345518680E+01 -0.26316359426E+01  0.33994357974E+01  0.51100000000E-03 0. -1.
        -11    1    3    3    0    0 -0.13382125123E+02 -0.15969050564E+02  0.30333263219E+02  0.36799438942E+02  0.51100000000E-03 0.  1.
        -12    1    3    3    0    0 -0.10224257479E+02  0.51270003883E+00  0.13821425855E+01  0.10329986469E+02  0.00000000000E+00 0.  1.
</event>
<event>
 7    1  0.5972636E-013  0.5052886E+02  0.7816164E-02  0.1300439E+00
        -11   -1    0    0    0    0  0.00000000000E+00  0.00000000000E+00  0.45593999997E+02  0.45594000000E+02  0.51100000000E-03 0.  1.
         11   -1    0    0    0    0 -0.00000000000E+00 -0.00000000000E+00 -0.45593999997E+02  0.45594000000E+02  0.51100000000E-03 0. -1.
    9900012    2    1    2    0    0 -0.55741816605E+00 -0.27035092770E+02  0.30363776522E+02  0.50528857353E+02  0.29999992409E+02 0.  0.
         12    1    1    2    0    0  0.55741816605E+00  0.27035092770E+02 -0.30363776522E+02  0.40659142647E+02  0.00000000000E+00 0. -1.
         11    1    3    3    0    0 -0.14506487378E+01 -0.65770710916E+01  0.21799490353E+02  0.22816222865E+02  0.51100000000E-03 0.  1.
        -11    1    3    3    0    0  0.38454447862E+01 -0.22515249721E+01 -0.35058841167E+01  0.56699236330E+01  0.51100000000E-03 0. -1.
        -12    1    3    3    0    0 -0.29522142145E+01 -0.18206496707E+02  0.12070170286E+02  0.22042710855E+02  0.00000000000E+00 0.  1.
</event>
<event>
 7    1  0.5972636E-013  0.5052889E+02  0.7816164E-02  0.1300439E+00
        -11   -1    0    0    0    0  0.00000000000E+00  0.00000000000E+00  0.45593999997E+02  0.45594000000E+02  0.51100000000E-03 0.  1.
         11   -1    0    0    0    0 -0.00000000000E+00 -0.00000000000E+00 -0.45593999997E+02  0.45594000000E+02  0.51100000000E-03 0. -1.
    9900012    2    1    2    0    0 -0.16605320842E+02  0.73883819558E+01  0.36370849228E+02  0.50528886117E+02  0.30000079841E+02 0.  0.
         12    1    1    2    0    0  0.16605320842E+02 -0.73883819558E+01 -0.36370849228E+02  0.40659113883E+02  0.00000000000E+00 0. -1.
         11    1    3    3    0    0  0.37970022326E+01 -0.38884668629E+01  0.49298582472E+01  0.73376360701E+01  0.51100000000E-03 0. -1.
        -11    1    3    3    0    0 -0.96077076588E+01  0.13410284034E+02  0.26300971631E+02  0.31046495347E+02  0.51100000000E-03 0.  1.
         12    1    3    3    0    0 -0.10794615416E+02 -0.21334352156E+01  0.51400193498E+01  0.12144754700E+02  0.00000000000E+00 0. -1.
</event>
<event>
 7    1  0.5972636E-013  0.5052886E+02  0.7816164E-02  0.1300439E+00
        -11   -1    0    0    0    0  0.00000000000E+00  0.00000000000E+00  0.45593999997E+02  0.45594000000E+02  0.51100000000E-03 0.  1.
         11   -1    0    0    0    0 -0.00000000000E+00 -0.00000000000E+00 -0.45593999997E+02  0.45594000000E+02  0.51100000000E-03 0. -1.
    9900012    2    1    2    0    0 -0.14171981923E+01 -0.14750629122E+01  0.40607651407E+02  0.50528860632E+02  0.30000002378E+02 0.  0.
         12    1    1    2    0    0  0.14171981923E+01  0.14750629122E+01 -0.40607651407E+02  0.40659139368E+02  0.00000000000E+00 0. -1.
         11    1    3    3    0    0 -0.69745474086E+01 -0.48162871267E+01 -0.74704815809E+00  0.85087610410E+01  0.51100000000E-03 0. -1.
        -11    1    3    3    0    0  0.50171473404E+01  0.40965868746E+01  0.34497475141E+02  0.35100278957E+02  0.51100000000E-03 0.  1.
         12    1    3    3    0    0  0.54020187590E+00 -0.75536266006E+00  0.68572244240E+01  0.69198206346E+01  0.00000000000E+00 0. -1.
</event>
<event>
 7    1  0.5972636E-013  0.5052885E+02  0.7816164E-02  0.1300439E+00
        -11   -1    0    0    0    0  0.00000000000E+00  0.00000000000E+00  0.45593999997E+02  0.45594000000E+02  0.51100000000E-03 0. -1.
         11   -1    0    0    0    0 -0.00000000000E+00 -0.00000000000E+00 -0.45593999997E+02  0.45594000000E+02  0.51100000000E-03 0.  1.
    9900012    2    1    2    0    0  0.20354259362E+02 -0.33556244408E+02 -0.10623041990E+02  0.50528850550E+02  0.29999971730E+02 0.  0.
         12    1    1    2    0    0 -0.20354259362E+02  0.33556244408E+02  0.10623041990E+02  0.40659149450E+02  0.00000000000E+00 0. -1.
         11    1    3    3    0    0  0.52763422931E+01 -0.28295925007E+01  0.35266170258E+01  0.69486264557E+01  0.51100000000E-03 0. -1.
        -11    1    3    3    0    0 -0.54979036037E+00 -0.24042762492E+02 -0.63146061344E+01  0.24864250412E+02  0.51100000000E-03 0.  1.
        -12    1    3    3    0    0  0.15627707429E+02 -0.66838894155E+01 -0.78350528814E+01  0.18715973682E+02  0.00000000000E+00 0.  1.
</event>
<event>
 7    1  0.5972636E-013  0.5052886E+02  0.7816164E-02  0.1300439E+00
        -11   -1    0    0    0    0  0.00000000000E+00  0.00000000000E+00  0.45593999997E+02  0.45594000000E+02  0.51100000000E-03 0. -1.
         11   -1    0    0    0    0 -0.00000000000E+00 -0.00000000000E+00 -0.45593999997E+02  0.45594000000E+02  0.51100000000E-03 0.  1.
    9900012    2    1    2    0    0  0.42816001310E+01  0.27592420939E+02 -0.29554897415E+02  0.50528858910E+02  0.29999997142E+02 0.  0.
         12    1    1    2    0    0 -0.42816001310E+01 -0.27592420939E+02  0.29554897415E+02  0.40659141090E+02  0.00000000000E+00 0. -1.
         11    1    3    3    0    0 -0.72836415913E+01  0.18559486258E+02 -0.13507274143E+02  0.24082201312E+02  0.51100000000E-03 0. -1.
        -11    1    3    3    0    0  0.11656314051E+02  0.67709714123E+01 -0.18640882645E+02  0.23004308665E+02  0.51100000000E-03 0.  1.
        -12    1    3    3    0    0 -0.91072328324E-01  0.22619632690E+01  0.25932593729E+01  0.34423489327E+01  0.00000000000E+00 0.  1.
</event>
<event>
 7    1  0.5972636E-013  0.5052887E+02  0.7816164E-02  0.1300439E+00
        -11   -1    0    0    0    0  0.00000000000E+00  0.00000000000E+00  0.45593999997E+02  0.45594000000E+02  0.51100000000E-03 0. -1.
         11   -1    0    0    0    0 -0.00000000000E+00 -0.00000000000E+00 -0.45593999997E+02  0.45594000000E+02  0.51100000000E-03 0.  1.
    9900012    2    1    2    0    0  0.10223098562E+02  0.29922919479E+02  0.25559183679E+02  0.50528871570E+02  0.30000035625E+02 0.  0.
         12    1    1    2    0    0 -0.10223098562E+02 -0.29922919479E+02 -0.25559183679E+02  0.40659128430E+02  0.00000000000E+00 0. -1.
         11    1    3    3    0    0 -0.33587394711E+01  0.49177113350E+01  0.10201563838E+02  0.11812574682E+02  0.51100000000E-03 0.  1.
        -11    1    3    3    0    0  0.16168862141E+02  0.12883958595E+02  0.16240930830E+02  0.26290612897E+02  0.51100000000E-03 0. -1.
        -12    1    3    3    0    0 -0.25870241082E+01  0.12121249549E+02 -0.88331098905E+00  0.12425683992E+02  0.00000000000E+00 0.  1.
</event>
<event>
 7    1  0.5972636E-013  0.5052886E+02  0.7816164E-02  0.1300439E+00
        -11   -1    0    0    0    0  0.00000000000E+00  0.00000000000E+00  0.45593999997E+02  0.45594000000E+02  0.51100000000E-03 0.  1.
         11   -1    0    0    0    0 -0.00000000000E+00 -0.00000000000E+00 -0.45593999997E+02  0.45594000000E+02  0.51100000000E-03 0. -1.
    9900012    2    1    2    0    0  0.33816014292E+02  0.15905125251E+02  0.16020929776E+02  0.50528855607E+02  0.29999987104E+02 0.  0.
         12    1    1    2    0    0 -0.33816014292E+02 -0.15905125251E+02 -0.16020929776E+02  0.40659144393E+02  0.00000000000E+00 0. -1.
         11    1    3    3    0    0  0.59611364750E+00 -0.10380949972E+01 -0.55972215063E+01  0.57237995733E+01  0.51100000000E-03 0. -1.
        -11    1    3    3    0    0  0.16131262479E+02  0.62029085270E+01  0.33970882212E+01  0.17613458264E+02  0.51100000000E-03 0.  1.
         12    1    3    3    0    0  0.17088638166E+02  0.10740311721E+02  0.18221063061E+02  0.27191597770E+02  0.00000000000E+00 0. -1.
</event>
<event>
 7    1  0.5972636E-013  0.5052886E+02  0.7816164E-02  0.1300439E+00
        -11   -1    0    0    0    0  0.00000000000E+00  0.00000000000E+00  0.45593999997E+02  0.45594000000E+02  0.51100000000E-03 0. -1.
         11   -1    0    0    0    0 -0.00000000000E+00 -0.00000000000E+00 -0.45593999997E+02  0.45594000000E+02  0.51100000000E-03 0.  1.
    9900012    2    1    2    0    0  0.38213602151E+02 -0.13104514879E+02 -0.45997557803E+01  0.50528862616E+02  0.30000008407E+02 0.  0.
         12    1    1    2    0    0 -0.38213602151E+02  0.13104514879E+02  0.45997557803E+01  0.40659137384E+02  0.00000000000E+00 0. -1.
         11    1    3    3    0    0  0.19554680672E+02 -0.41557311104E-01  0.10174018709E+02  0.22043092346E+02  0.51100000000E-03 0. -1.
        -11    1    3    3    0    0  0.91523212264E+01 -0.88515990506E+01 -0.36196425755E+01  0.13236978591E+02  0.51100000000E-03 0.  1.
         12    1    3    3    0    0  0.95066002527E+01 -0.42113585170E+01 -0.11154131914E+02  0.15248791679E+02  0.00000000000E+00 0. -1.
</event>
<event>
 7    1  0.5972636E-013  0.5052885E+02  0.7816164E-02  0.1300439E+00
        -11   -1    0    0    0    0  0.00000000000E+00  0.00000000000E+00  0.45593999997E+02  0.45594000000E+02  0.51100000000E-03 0.  1.
         11   -1    0    0    0    0 -0.00000000000E+00 -0.00000000000E+00 -0.45593999997E+02  0.45594000000E+02  0.51100000000E-03 0. -1.
    9900012    2    1    2    0    0 -0.83095822250E+01  0.35685726689E+02  0.17625148028E+02  0.50528854792E+02  0.29999984625E+02 0.  0.
         12    1    1    2    0    0  0.83095822250E+01 -0.35685726689E+02 -0.17625148028E+02  0.40659145208E+02  0.00000000000E+00 0. -1.
         11    1    3    3    0    0 -0.33459034548E+01 -0.23235336754E+01 -0.35693589904E+01  0.54161058458E+01  0.51100000000E-03 0. -1.
        -11    1    3    3    0    0 -0.65623184615E+01  0.27049421803E+02  0.19313336387E+02  0.33878314688E+02  0.51100000000E-03 0.  1.
        -12    1    3    3    0    0  0.15986396913E+01  0.10959838561E+02  0.18811706312E+01  0.11234434258E+02  0.00000000000E+00 0.  1.
</event>
<event>
 7    1  0.5972636E-013  0.5052886E+02  0.7816164E-02  0.1300439E+00
        -11   -1    0    0    0    0  0.00000000000E+00  0.00000000000E+00  0.45593999997E+02  0.45594000000E+02  0.51100000000E-03 0.  1.
         11   -1    0    0    0    0 -0.00000000000E+00 -0.00000000000E+00 -0.45593999997E+02  0.45594000000E+02  0.51100000000E-03 0. -1.
    9900012    2    1    2    0    0 -0.17916820983E+02 -0.35812422997E+02  0.70444185309E+01  0.50528856533E+02  0.29999989918E+02 0.  0.
         12    1    1    2    0    0  0.17916820983E+02  0.35812422997E+02 -0.70444185309E+01  0.40659143467E+02  0.00000000000E+00 0. -1.
         11    1    3    3    0    0  0.39349697203E+01 -0.76973267914E+01  0.59066260952E+01  0.10470007570E+02  0.51100000000E-03 0. -1.
        -11    1    3    3    0    0 -0.13576448596E+02 -0.84928375268E+01 -0.67100376522E+01  0.17362973573E+02  0.51100000000E-03 0.  1.
        -12    1    3    3    0    0 -0.82753421074E+01 -0.19622258678E+02  0.78478300879E+01  0.22695875390E+02  0.00000000000E+00 0.  1.
</event>
<event>
 7    1  0.5972636E-013  0.5052886E+02  0.7816164E-02  0.1300439E+00
        -11   -1    0    0    0    0  0.00000000000E+00  0.00000000000E+00  0.45593999997E+02  0.45594000000E+02  0.51100000000E-03 0.  1.
         11   -1    0    0    0    0 -0.00000000000E+00 -0.00000000000E+00 -0.45593999997E+02  0.45594000000E+02  0.51100000000E-03 0. -1.
    9900012    2    1    2    0    0  0.74793026826E+01  0.34393833225E+02  0.20354109434E+02  0.50528861994E+02  0.30000006518E+02 0.  0.
         12    1    1    2    0    0 -0.74793026826E+01 -0.34393833225E+02 -0.20354109434E+02  0.40659138006E+02  0.00000000000E+00 0. -1.
         11    1    3    3    0    0 -0.48355095388E+01  0.21849877769E+02  0.98989574599E+01  0.24470158767E+02  0.51100000000E-03 0.  1.
        -11    1    3    3    0    0  0.89293261886E+01  0.26877300576E+01  0.12341059769E+02  0.15467983564E+02  0.51100000000E-03 0. -1.
        -12    1    3    3    0    0  0.33854860329E+01  0.98562253988E+01 -0.18859077954E+01  0.10590719664E+02  0.00000000000E+00 0.  1.
</event>
<event>
 7    1  0.5972636E-013  0.5052887E+02  0.7816164E-02  0.1300439E+00
        -11   -1    0    0    0    0  0.00000000000E+00  0.00000000000E+00  0.45593999997E+02  0.45594000000E+02  0.51100000000E-03 0.  1.
         11   -1    0    0    0    0 -0.00000000000E+00 -0.00000000000E+00 -0.45593999997E+02  0.45594000000E+02  0.51100000000E-03 0. -1.
    9900012    2    1    2    0    0  0.38846160787E+02 -0.77403506683E+01  0.91775802811E+01  0.50528865526E+02  0.30000017253E+02 0.  0.
         12    1    1    2    0    0 -0.38846160787E+02  0.77403506683E+01 -0.91775802811E+01  0.40659134474E+02  0.00000000000E+00 0. -1.
         11    1    3    3    0    0  0.11492177694E+02  0.24003269408E+01 -0.56087553458E+01  0.13011143469E+02  0.51100000000E-03 0. -1.
        -11    1    3    3    0    0  0.25689072891E+02 -0.14707183028E+02  0.12257306561E+02  0.32038590216E+02  0.51100000000E-03 0.  1.
        -12    1    3    3    0    0  0.16649102018E+01  0.45665054190E+01  0.25290290655E+01  0.54791318415E+01  0.00000000000E+00 0.  1.
</event>
<event>
 7    1  0.5972636E-013  0.5052886E+02  0.7816164E-02  0.1300439E+00
        -11   -1    0    0    0    0  0.00000000000E+00  0.00000000000E+00  0.45593999997E+02  0.45594000000E+02  0.51100000000E-03 0.  1.
         11   -1    0    0    0    0 -0.00000000000E+00 -0.00000000000E+00 -0.45593999997E+02  0.45594000000E+02  0.51100000000E-03 0. -1.
    9900012    2    1    2    0    0 -0.22223257777E+02  0.22261485170E+02  0.25762733514E+02  0.50528863925E+02  0.30000012387E+02 0.  0.
         12    1    1    2    0    0  0.22223257777E+02 -0.22261485170E+02 -0.25762733514E+02  0.40659136075E+02  0.00000000000E+00 0. -1.
         11    1    3    3    0    0 -0.21878323013E+00  0.17607258500E+02  0.64781726470E+01  0.18762466231E+02  0.51100000000E-03 0. -1.
        -11    1    3    3    0    0 -0.13291836174E+02  0.83639717311E+01  0.10879772552E+02  0.19104930857E+02  0.51100000000E-03 0.  1.
         12    1    3    3    0    0 -0.87126383728E+01 -0.37097450609E+01  0.84047883158E+01  0.12661466837E+02  0.00000000000E+00 0. -1.
</event>
<event>
 7    1  0.5972636E-013  0.5052887E+02  0.7816164E-02  0.1300439E+00
        -11   -1    0    0    0    0  0.00000000000E+00  0.00000000000E+00  0.45593999997E+02  0.45594000000E+02  0.51100000000E-03 0. -1.
         11   -1    0    0    0    0 -0.00000000000E+00 -0.00000000000E+00 -0.45593999997E+02  0.45594000000E+02  0.51100000000E-03 0.  1.
    9900012    2    1    2    0    0  0.79117633927E+01 -0.38625039321E+02 -0.99335416211E+01  0.50528869271E+02  0.30000028635E+02 0.  0.
         12    1    1    2    0    0 -0.79117633927E+01  0.38625039321E+02  0.99335416211E+01  0.40659130729E+02  0.00000000000E+00 0. -1.
         11    1    3    3    0    0 -0.22781133073E+01  0.66480335783E+00  0.30682001957E+01  0.38788679338E+01  0.51100000000E-03 0. -1.
        -11    1    3    3    0    0  0.14481851322E+02 -0.19345674738E+02 -0.46662542297E+01  0.24612051470E+02  0.51100000000E-03 0.  1.
        -12    1    3    3    0    0 -0.42919746218E+01 -0.19944167941E+02 -0.83354875871E+01  0.22037949866E+02  0.00000000000E+00 0.  1.
</event>
<event>
 7    1  0.5972636E-013  0.5052886E+02  0.7816164E-02  0.1300439E+00
        -11   -1    0    0    0    0  0.00000000000E+00  0.00000000000E+00  0.45593999997E+02  0.45594000000E+02  0.51100000000E-03 0. -1.
         11   -1    0    0    0    0 -0.00000000000E+00 -0.00000000000E+00 -0.45593999997E+02  0.45594000000E+02  0.51100000000E-03 0.  1.
    9900012    2    1    2    0    0 -0.42861268369E+01 -0.89015218287E+01 -0.39440563272E+02  0.50528855821E+02  0.29999987753E+02 0.  0.
         12    1    1    2    0    0  0.42861268369E+01  0.89015218287E+01  0.39440563272E+02  0.40659144179E+02  0.00000000000E+00 0. -1.
         11    1    3    3    0    0 -0.12232476834E+01  0.66946181595E+01 -0.25459940531E+02  0.26353800851E+02  0.51100000000E-03 0.  1.
        -11    1    3    3    0    0 -0.27017007207E+01 -0.34435244905E+00  0.89519180398E+00  0.28669032109E+01  0.51100000000E-03 0. -1.
         12    1    3    3    0    0 -0.36117843279E+00 -0.15251787539E+02 -0.14875814546E+02  0.21308151759E+02  0.00000000000E+00 0. -1.
</event>
<event>
 7    1  0.5972636E-013  0.5052885E+02  0.7816164E-02  0.1300439E+00
        -11   -1    0    0    0    0  0.00000000000E+00  0.00000000000E+00  0.45593999997E+02  0.45594000000E+02  0.51100000000E-03 0.  1.
         11   -1    0    0    0    0 -0.00000000000E+00 -0.00000000000E+00 -0.45593999997E+02  0.45594000000E+02  0.51100000000E-03 0. -1.
    9900012    2    1    2    0    0  0.27792327005E+02  0.86338721364E+01  0.28393818610E+02  0.50528854366E+02  0.29999983332E+02 0.  0.
         12    1    1    2    0    0 -0.27792327005E+02 -0.86338721364E+01 -0.28393818610E+02  0.40659145634E+02  0.00000000000E+00 0. -1.
         11    1    3    3    0    0  0.63639491192E+01  0.12568529150E+02  0.13945423174E+02  0.19822779854E+02  0.51100000000E-03 0.  1.
        -11    1    3    3    0    0  0.21813062686E+02  0.45607884120E+00  0.14672896840E+02  0.26292805358E+02  0.51100000000E-03 0. -1.
         12    1    3    3    0    0 -0.38468480000E+00 -0.43907358551E+01 -0.22450140461E+00  0.44132691540E+01  0.00000000000E+00 0. -1.
</event>
<event>
 7    1  0.5972636E-013  0.5052886E+02  0.7816164E-02  0.1300439E+00
        -11   -1    0    0    0    0  0.00000000000E+00  0.00000000000E+00  0.45593999997E+02  0.45594000000E+02  0.51100000000E-03 0.  1.
         11   -1    0    0    0    0 -0.00000000000E+00 -0.00000000000E+00 -0.45593999997E+02  0.45594000000E+02  0.51100000000E-03 0. -1.
    9900012    2    1    2    0    0  0.39369387180E+02 -0.38082472302E+01  0.94188085657E+01  0.50528863897E+02  0.30000012300E+02 0.  0.
         12    1    1    2    0    0 -0.39369387180E+02  0.38082472302E+01 -0.94188085657E+01  0.40659136103E+02  0.00000000000E+00 0. -1.
         11    1    3    3    0    0  0.75645572445E+01  0.32968543219E+01  0.13440805461E+02  0.15771716027E+02  0.51100000000E-03 0.  1.
        -11    1    3    3    0    0  0.18145293425E+02  0.17625042012E+01 -0.24852056242E+01  0.18399302753E+02  0.51100000000E-03 0. -1.
         12    1    3    3    0    0  0.13659536510E+02 -0.88676057533E+01 -0.15367912710E+01  0.16357845117E+02  0.00000000000E+00 0. -1.
</event>
<event>
 7    1  0.5972636E-013  0.5052886E+02  0.7816164E-02  0.1300439E+00
        -11   -1    0    0    0    0  0.00000000000E+00  0.00000000000E+00  0.45593999997E+02  0.45594000000E+02  0.51100000000E-03 0. -1.
         11   -1    0    0    0    0 -0.00000000000E+00 -0.00000000000E+00 -0.45593999997E+02  0.45594000000E+02  0.51100000000E-03 0.  1.
    9900012    2    1    2    0    0  0.50095738559E-01  0.19886905104E+02 -0.35463701962E+02  0.50528860055E+02  0.30000000623E+02 0.  0.
         12    1    1    2    0    0 -0.50095738559E-01 -0.19886905104E+02  0.35463701962E+02  0.40659139945E+02  0.00000000000E+00 0. -1.
         11    1    3    3    0    0 -0.68851318775E+01  0.23141044667E+02 -0.33304471412E+02  0.41135152918E+02  0.51100000000E-03 0. -1.
        -11    1    3    3    0    0  0.32916671872E+01  0.83417935481E+00 -0.19448072216E+01  0.39132088441E+01  0.51100000000E-03 0.  1.
         12    1    3    3    0    0  0.36435604289E+01 -0.40883189182E+01 -0.21442332841E+00  0.54804982930E+01  0.00000000000E+00 0. -1.
</event>
<event>
 7    1  0.5972636E-013  0.5052887E+02  0.7816164E-02  0.1300439E+00
        -11   -1    0    0    0    0  0.00000000000E+00  0.00000000000E+00  0.45593999997E+02  0.45594000000E+02  0.51100000000E-03 0.  1.
         11   -1    0    0    0    0 -0.00000000000E+00 -0.00000000000E+00 -0.45593999997E+02  0.45594000000E+02  0.51100000000E-03 0. -1.
    9900012    2    1    2    0    0 -0.85535665480E-01  0.77772387107E+01  0.39908300717E+02  0.50528865424E+02  0.30000016944E+02 0.  0.
         12    1    1    2    0    0  0.85535665480E-01 -0.77772387107E+01 -0.39908300717E+02  0.40659134576E+02  0.00000000000E+00 0. -1.
         11    1    3    3    0    0 -0.44197655023E+01  0.86287577352E+01  0.11794486422E+02  0.15267602869E+02  0.51100000000E-03 0. -1.
        -11    1    3    3    0    0  0.11224855250E+02 -0.58215289691E+01  0.14781329512E+02  0.19451870792E+02  0.51100000000E-03 0.  1.
        -12    1    3    3    0    0 -0.68906254129E+01  0.49700099447E+01  0.13332484783E+02  0.15809391763E+02  0.00000000000E+00 0.  1.
</event>
<event>
 7    1  0.5972636E-013  0.5052885E+02  0.7816164E-02  0.1300439E+00
        -11   -1    0    0    0    0  0.00000000000E+00  0.00000000000E+00  0.45593999997E+02  0.45594000000E+02  0.51100000000E-03 0.  1.
         11   -1    0    0    0    0 -0.00000000000E+00 -0.00000000000E+00 -0.45593999997E+02  0.45594000000E+02  0.51100000000E-03 0. -1.
    9900012    2    1    2    0    0 -0.19231516028E+01  0.24132444698E+02  0.32666395108E+02  0.50528846437E+02  0.29999959228E+02 0.  0.
         12    1    1    2    0    0  0.19231516028E+01 -0.24132444698E+02 -0.32666395108E+02  0.40659153563E+02  0.00000000000E+00 0. -1.
         11    1    3    3    0    0 -0.93603518036E+01  0.98227170399E+01  0.40920788299E+01  0.14172052263E+02  0.51100000000E-03 0. -1.
        -11    1    3    3    0    0  0.84489259650E+01  0.12817270673E+02  0.30232747162E+02  0.33907016659E+02  0.51100000000E-03 0.  1.
        -12    1    3    3    0    0 -0.10117257641E+01  0.14924569852E+01 -0.16584308844E+01  0.24497775149E+01  0.00000000000E+00 0.  1.
</event>
<event>
 7    1  0.5972636E-013  0.5052887E+02  0.7816164E-02  0.1300439E+00
        -11   -1    0    0    0    0  0.00000000000E+00  0.00000000000E+00  0.45593999997E+02  0.45594000000E+02  0.51100000000E-03 0.  1.
         11   -1    0    0    0    0 -0.00000000000E+00 -0.00000000000E+00 -0.45593999997E+02  0.45594000000E+02  0.51100000000E-03 0. -1.
    9900012    2    1    2    0    0 -0.11062108753E+02 -0.34837076148E+02  0.17809350576E+02  0.50528867046E+02  0.30000021874E+02 0.  0.
         12    1    1    2    0    0  0.11062108753E+02  0.34837076148E+02 -0.17809350576E+02  0.40659132954E+02  0.00000000000E+00 0. -1.
         11    1    3    3    0    0 -0.12990261921E+02 -0.19524328097E+02  0.12850860368E+02  0.26741183685E+02  0.51100000000E-03 0. -1.
        -11    1    3    3    0    0  0.92238872095E+01 -0.91347717575E+01  0.57433716689E+01  0.14195438306E+02  0.51100000000E-03 0.  1.
        -12    1    3    3    0    0 -0.72957340423E+01 -0.61779762931E+01 -0.78488146092E+00  0.95922450553E+01  0.00000000000E+00 0.  1.
</event>
<event>
 7    1  0.5972636E-013  0.5052887E+02  0.7816164E-02  0.1300439E+00
        -11   -1    0    0    0    0  0.00000000000E+00  0.00000000000E+00  0.45593999997E+02  0.45594000000E+02  0.51100000000E-03 0. -1.
         11   -1    0    0    0    0 -0.00000000000E+00 -0.00000000000E+00 -0.45593999997E+02  0.45594000000E+02  0.51100000000E-03 0.  1.
    9900012    2    1    2    0    0 -0.38146288152E+02 -0.11234495321E+02 -0.84741725776E+01  0.50528870819E+02  0.30000033341E+02 0.  0.
         12    1    1    2    0    0  0.38146288152E+02  0.11234495321E+02  0.84741725776E+01  0.40659129181E+02  0.00000000000E+00 0. -1.
         11    1    3    3    0    0 -0.16891942674E+02  0.22739122506E+01 -0.96406334608E+01  0.19581884945E+02  0.51100000000E-03 0.  1.
        -11    1    3    3    0    0 -0.21117814667E+02 -0.16804486397E+02 -0.98934094532E+00  0.27006141064E+02  0.51100000000E-03 0. -1.
        -12    1    3    3    0    0 -0.13653081050E+00  0.32960788257E+01  0.21558018284E+01  0.39408448092E+01  0.00000000000E+00 0.  1.
</event>
<event>
 7    1  0.5972636E-013  0.5052892E+02  0.7816164E-02  0.1300439E+00
        -11   -1    0    0    0    0  0.00000000000E+00  0.00000000000E+00  0.45593999997E+02  0.45594000000E+02  0.51100000000E-03 0.  1.
         11   -1    0    0    0    0 -0.00000000000E+00 -0.00000000000E+00 -0.45593999997E+02  0.45594000000E+02  0.51100000000E-03 0. -1.
    9900012    2    1    2    0    0  0.39384769020E+02  0.35395239138E+01  0.94589939097E+01  0.50528919513E+02  0.30000181350E+02 0.  0.
         12    1    1    2    0    0 -0.39384769020E+02 -0.35395239138E+01 -0.94589939097E+01  0.40659080487E+02  0.00000000000E+00 0. -1.
         11    1    3    3    0    0  0.33971699198E+02 -0.68492079786E+00  0.80946042523E+00  0.33988243399E+02  0.51100000000E-03 0. -1.
        -11    1    3    3    0    0  0.68161981807E+01 -0.18647318677E+00  0.96393624253E+01  0.11807312908E+02  0.51100000000E-03 0.  1.
         12    1    3    3    0    0 -0.14031283590E+01  0.44109178984E+01 -0.98982894078E+00  0.47333632050E+01  0.00000000000E+00 0. -1.
</event>
<event>
 7    1  0.5972636E-013  0.5052886E+02  0.7816164E-02  0.1300439E+00
        -11   -1    0    0    0    0  0.00000000000E+00  0.00000000000E+00  0.45593999997E+02  0.45594000000E+02  0.51100000000E-03 0.  1.
         11   -1    0    0    0    0 -0.00000000000E+00 -0.00000000000E+00 -0.45593999997E+02  0.45594000000E+02  0.51100000000E-03 0. -1.
    9900012    2    1    2    0    0 -0.34208879262E+02 -0.17213760887E+01  0.21907883523E+02  0.50528856914E+02  0.29999991075E+02 0.  0.
         12    1    1    2    0    0  0.34208879262E+02  0.17213760887E+01 -0.21907883523E+02  0.40659143086E+02  0.00000000000E+00 0. -1.
         11    1    3    3    0    0 -0.16988561070E+02  0.11852008595E+02  0.49924422480E+01  0.21307411735E+02  0.51100000000E-03 0. -1.
        -11    1    3    3    0    0 -0.13477798940E+02 -0.63108910180E+01  0.14310125312E+02  0.20646018900E+02  0.51100000000E-03 0.  1.
         12    1    3    3    0    0 -0.37425192523E+01 -0.72624936657E+01  0.26053159632E+01  0.85754262790E+01  0.00000000000E+00 0. -1.
</event>
<event>
 7    1  0.5972636E-013  0.5052886E+02  0.7816164E-02  0.1300439E+00
        -11   -1    0    0    0    0  0.00000000000E+00  0.00000000000E+00  0.45593999997E+02  0.45594000000E+02  0.51100000000E-03 0. -1.
         11   -1    0    0    0    0 -0.00000000000E+00 -0.00000000000E+00 -0.45593999997E+02  0.45594000000E+02  0.51100000000E-03 0.  1.
    9900012    2    1    2    0    0 -0.48606175178E+01 -0.57776207840E+01 -0.39951955975E+02  0.50528864608E+02  0.30000014463E+02 0.  0.
         12    1    1    2    0    0  0.48606175178E+01  0.57776207840E+01  0.39951955975E+02  0.40659135392E+02  0.00000000000E+00 0. -1.
         11    1    3    3    0    0 -0.25935707187E+01  0.39314903299E+01  0.64430704274E+00  0.47537729346E+01  0.51100000000E-03 0. -1.
        -11    1    3    3    0    0 -0.83511316462E+00 -0.55731866878E+00 -0.34870991135E+02  0.34885441678E+02  0.51100000000E-03 0.  1.
        -12    1    3    3    0    0 -0.14319336346E+01 -0.91517924452E+01 -0.57252718832E+01  0.10889649996E+02  0.00000000000E+00 0.  1.
</event>
<event>
 7    1  0.5972636E-013  0.5052886E+02  0.7816164E-02  0.1300439E+00
        -11   -1    0    0    0    0  0.00000000000E+00  0.00000000000E+00  0.45593999997E+02  0.45594000000E+02  0.51100000000E-03 0.  1.
         11   -1    0    0    0    0 -0.00000000000E+00 -0.00000000000E+00 -0.45593999997E+02  0.45594000000E+02  0.51100000000E-03 0. -1.
    9900012    2    1    2    0    0 -0.24443123978E+02 -0.64095683219E+01  0.31853055222E+02  0.50528855852E+02  0.29999987847E+02 0.  0.
         12    1    1    2    0    0  0.24443123978E+02  0.64095683219E+01 -0.31853055222E+02  0.40659144148E+02  0.00000000000E+00 0. -1.
         11    1    3    3    0    0 -0.15218687957E+02 -0.13084204976E+02  0.89601139329E+01  0.21979274896E+02  0.51100000000E-03 0. -1.
        -11    1    3    3    0    0 -0.70851155424E+01  0.84557359769E+01  0.85992031446E+01  0.13987302390E+02  0.51100000000E-03 0.  1.
        -12    1    3    3    0    0 -0.21393204785E+01 -0.17810993232E+01  0.14293738144E+02  0.14562278566E+02  0.00000000000E+00 0.  1.
</event>
<event>
 7    1  0.5972636E-013  0.5052884E+02  0.7816164E-02  0.1300439E+00
        -11   -1    0    0    0    0  0.00000000000E+00  0.00000000000E+00  0.45593999997E+02  0.45594000000E+02  0.51100000000E-03 0. -1.
         11   -1    0    0    0    0 -0.00000000000E+00 -0.00000000000E+00 -0.45593999997E+02  0.45594000000E+02  0.51100000000E-03 0.  1.
    9900012    2    1    2    0    0  0.18884744616E+02 -0.29645349887E+02 -0.20437394454E+02  0.50528838164E+02  0.29999934082E+02 0.  0.
         12    1    1    2    0    0 -0.18884744616E+02  0.29645349887E+02  0.20437394454E+02  0.40659161836E+02  0.00000000000E+00 0. -1.
         11    1    3    3    0    0  0.66404573586E+01  0.38291324591E+01 -0.12183581128E+01  0.77615930113E+01  0.51100000000E-03 0. -1.
        -11    1    3    3    0    0  0.12924308362E+02 -0.34358554610E+02 -0.19567794614E+02  0.41598637091E+02  0.51100000000E-03 0.  1.
        -12    1    3    3    0    0 -0.68002110386E+00  0.88407226358E+00  0.34875827239E+00  0.11686080615E+01  0.00000000000E+00 0.  1.
</event>
<event>
 7    1  0.5972636E-013  0.5052885E+02  0.7816164E-02  0.1300439E+00
        -11   -1    0    0    0    0  0.00000000000E+00  0.00000000000E+00  0.45593999997E+02  0.45594000000E+02  0.51100000000E-03 0.  1.
         11   -1    0    0    0    0 -0.00000000000E+00 -0.00000000000E+00 -0.45593999997E+02  0.45594000000E+02  0.51100000000E-03 0. -1.
    9900012    2    1    2    0    0  0.82728200780E+01 -0.32695829404E+02  0.22709235585E+02  0.50528853510E+02  0.29999980729E+02 0.  0.
         12    1    1    2    0    0 -0.82728200780E+01  0.32695829404E+02 -0.22709235585E+02  0.40659146490E+02  0.00000000000E+00 0. -1.
         11    1    3    3    0    0  0.16314071400E+01 -0.13788216008E+02 -0.23580908802E+01  0.14083216351E+02  0.51100000000E-03 0. -1.
        -11    1    3    3    0    0  0.13855610660E+01 -0.20564695077E+02  0.21966313808E+02  0.30122174650E+02  0.51100000000E-03 0.  1.
        -12    1    3    3    0    0  0.52558518720E+01  0.16570816810E+01  0.31010126566E+01  0.63234625083E+01  0.00000000000E+00 0.  1.
</event>
<event>
 7    1  0.5972636E-013  0.5052888E+02  0.7816164E-02  0.1300439E+00
        -11   -1    0    0    0    0  0.00000000000E+00  0.00000000000E+00  0.45593999997E+02  0.45594000000E+02  0.51100000000E-03 0. -1.
         11   -1    0    0    0    0 -0.00000000000E+00 -0.00000000000E+00 -0.45593999997E+02  0.45594000000E+02  0.51100000000E-03 0.  1.
    9900012    2    1    2    0    0 -0.39397362091E+02 -0.68907463660E+01  0.73163718657E+01  0.50528882665E+02  0.30000069347E+02 0.  0.
         12    1    1    2    0    0  0.39397362091E+02  0.68907463660E+01 -0.73163718657E+01  0.40659117335E+02  0.00000000000E+00 0. -1.
         11    1    3    3    0    0 -0.96308233499E-01 -0.25269779059E+01  0.68511184732E+01  0.73029252501E+01  0.51100000000E-03 0. -1.
        -11    1    3    3    0    0 -0.21350773680E+02 -0.52420802253E+01 -0.79544621152E+01  0.23379658030E+02  0.51100000000E-03 0.  1.
        -12    1    3    3    0    0 -0.17950280178E+02  0.87831176520E+00  0.84197155077E+01  0.19846299384E+02  0.00000000000E+00 0.  1.
</event>
<event>
 7    1  0.5972636E-013  0.5052886E+02  0.7816164E-02  0.1300439E+00
        -11   -1    0    0    0    0  0.00000000000E+00  0.00000000000E+00  0.45593999997E+02  0.45594000000E+02  0.51100000000E-03 0.  1.
         11   -1    0    0    0    0 -0.00000000000E+00 -0.00000000000E+00 -0.45593999997E+02  0.45594000000E+02  0.51100000000E-03 0. -1.
    9900012    2    1    2    0    0  0.17412304716E+02 -0.34255657267E+02  0.13286351198E+02  0.50528861563E+02  0.30000005206E+02 0.  0.
         12    1    1    2    0    0 -0.17412304716E+02  0.34255657267E+02 -0.13286351198E+02  0.40659138437E+02  0.00000000000E+00 0. -1.
         11    1    3    3    0    0 -0.50039686847E+01 -0.14398782737E+01 -0.34819119064E+01  0.62639175302E+01  0.51100000000E-03 0. -1.
        -11    1    3    3    0    0  0.89392816459E+01 -0.18461165497E+02  0.12804687742E+02  0.24180269152E+02  0.51100000000E-03 0.  1.
         12    1    3    3    0    0  0.13476991755E+02 -0.14354613496E+02  0.39635753628E+01  0.20084674880E+02  0.00000000000E+00 0. -1.
</event>
<event>
 7    1  0.5972636E-013  0.5052886E+02  0.7816164E-02  0.1300439E+00
        -11   -1    0    0    0    0  0.00000000000E+00  0.00000000000E+00  0.45593999997E+02  0.45594000000E+02  0.51100000000E-03 0. -1.
         11   -1    0    0    0    0 -0.00000000000E+00 -0.00000000000E+00 -0.45593999997E+02  0.45594000000E+02  0.51100000000E-03 0.  1.
    9900012    2    1    2    0    0 -0.20234961263E+02  0.14453510322E+02 -0.32168429566E+02  0.50528862298E+02  0.30000007440E+02 0.  0.
         12    1    1    2    0    0  0.20234961263E+02 -0.14453510322E+02  0.32168429566E+02  0.40659137702E+02  0.00000000000E+00 0. -1.
         11    1    3    3    0    0 -0.10481993146E+02  0.19308646101E+02 -0.11886971866E+02  0.24979913830E+02  0.51100000000E-03 0. -1.
        -11    1    3    3    0    0 -0.10790882630E+02 -0.90029109160E+00 -0.17583544838E+02  0.20650295914E+02  0.51100000000E-03 0.  1.
         12    1    3    3    0    0  0.10379145128E+01 -0.39548446870E+01 -0.26979128621E+01  0.48986525541E+01  0.00000000000E+00 0. -1.
</event>
<event>
 7    1  0.5972636E-013  0.5052887E+02  0.7816164E-02  0.1300439E+00
        -11   -1    0    0    0    0  0.00000000000E+00  0.00000000000E+00  0.45593999997E+02  0.45594000000E+02  0.51100000000E-03 0.  1.
         11   -1    0    0    0    0 -0.00000000000E+00 -0.00000000000E+00 -0.45593999997E+02  0.45594000000E+02  0.51100000000E-03 0. -1.
    9900012    2    1    2    0    0  0.65174698082E+01 -0.22315506082E+02  0.33357247462E+02  0.50528865939E+02  0.30000018507E+02 0.  0.
         12    1    1    2    0    0 -0.65174698082E+01  0.22315506082E+02 -0.33357247462E+02  0.40659134061E+02  0.00000000000E+00 0. -1.
         11    1    3    3    0    0 -0.10458042714E+01 -0.19786929691E+02  0.75237414219E+01  0.21194880949E+02  0.51100000000E-03 0. -1.
        -11    1    3    3    0    0  0.25104231817E+01  0.44323539727E+01  0.72980894817E+01  0.89000054289E+01  0.51100000000E-03 0.  1.
         12    1    3    3    0    0  0.50528508980E+01 -0.69609303639E+01  0.18535416558E+02  0.20433979561E+02  0.00000000000E+00 0. -1.
</event>
<event>
 7    1  0.5972636E-013  0.5052886E+02  0.7816164E-02  0.1300439E+00
        -11   -1    0    0    0    0  0.00000000000E+00  0.00000000000E+00  0.45593999997E+02  0.45594000000E+02  0.51100000000E-03 0. -1.
         11   -1    0    0    0    0 -0.00000000000E+00 -0.00000000000E+00 -0.45593999997E+02  0.45594000000E+02  0.51100000000E-03 0.  1.
    9900012    2    1    2    0    0 -0.29527604846E+02  0.16718883942E+02 -0.22400115123E+02  0.50528859752E+02  0.29999999701E+02 0.  0.
         12    1    1    2    0    0  0.29527604846E+02 -0.16718883942E+02  0.22400115123E+02  0.40659140248E+02  0.00000000000E+00 0. -1.
         11    1    3    3    0    0 -0.15318611685E+02  0.77482280122E+01 -0.21608890380E+02  0.27597808699E+02  0.51100000000E-03 0. -1.
        -11    1    3    3    0    0 -0.12889164171E+02  0.11716625863E+02 -0.46364176288E+01  0.18025155848E+02  0.51100000000E-03 0.  1.
         12    1    3    3    0    0 -0.13198289906E+01 -0.27459699329E+01  0.38451928856E+01  0.49058952052E+01  0.00000000000E+00 0. -1.
</event>
<event>
 7    1  0.5972636E-013  0.5052888E+02  0.7816164E-02  0.1300439E+00
        -11   -1    0    0    0    0  0.00000000000E+00  0.00000000000E+00  0.45593999997E+02  0.45594000000E+02  0.51100000000E-03 0.  1.
         11   -1    0    0    0    0 -0.00000000000E+00 -0.00000000000E+00 -0.45593999997E+02  0.45594000000E+02  0.51100000000E-03 0. -1.
    9900012    2    1    2    0    0 -0.13197216711E+02  0.16930732538E+02  0.34530384322E+02  0.50528884483E+02  0.30000074875E+02 0.  0.
         12    1    1    2    0    0  0.13197216711E+02 -0.16930732538E+02 -0.34530384322E+02  0.40659115517E+02  0.00000000000E+00 0. -1.
         11    1    3    3    0    0 -0.16625052504E+02  0.31668942559E+01  0.15236450705E+02  0.22772154494E+02  0.51100000000E-03 0. -1.
        -11    1    3    3    0    0 -0.16608166907E+01  0.13738085997E+02  0.17610169446E+02  0.22396682502E+02  0.51100000000E-03 0.  1.
         12    1    3    3    0    0  0.50886524832E+01  0.25752285465E-01  0.16837641713E+01  0.53600474866E+01  0.00000000000E+00 0. -1.
</event>
<event>
 7    1  0.5972636E-013  0.5052886E+02  0.7816164E-02  0.1300439E+00
        -11   -1    0    0    0    0  0.00000000000E+00  0.00000000000E+00  0.45593999997E+02  0.45594000000E+02  0.51100000000E-03 0. -1.
         11   -1    0    0    0    0 -0.00000000000E+00 -0.00000000000E+00 -0.45593999997E+02  0.45594000000E+02  0.51100000000E-03 0.  1.
    9900012    2    1    2    0    0 -0.19767435178E+02  0.86705527967E+00 -0.35519883730E+02  0.50528863037E+02  0.30000009688E+02 0.  0.
         12    1    1    2    0    0  0.19767435178E+02 -0.86705527967E+00  0.35519883730E+02  0.40659136963E+02  0.00000000000E+00 0. -1.
         11    1    3    3    0    0 -0.81762194884E+01  0.12384312086E+02 -0.16871335448E+02  0.22469172460E+02  0.51100000000E-03 0. -1.
        -11    1    3    3    0    0 -0.43249505359E+01 -0.12695481610E+02 -0.13808883139E+02  0.19250083228E+02  0.51100000000E-03 0.  1.
        -12    1    3    3    0    0 -0.72662651532E+01  0.11782248037E+01 -0.48396651430E+01  0.88096073500E+01  0.00000000000E+00 0.  1.
</event>
<event>
 7    1  0.5972636E-013  0.5052886E+02  0.7816164E-02  0.1300439E+00
        -11   -1    0    0    0    0  0.00000000000E+00  0.00000000000E+00  0.45593999997E+02  0.45594000000E+02  0.51100000000E-03 0.  1.
         11   -1    0    0    0    0 -0.00000000000E+00 -0.00000000000E+00 -0.45593999997E+02  0.45594000000E+02  0.51100000000E-03 0. -1.
    9900012    2    1    2    0    0 -0.29230403606E+01  0.36975390856E+02  0.16656585132E+02  0.50528861763E+02  0.30000005815E+02 0.  0.
         12    1    1    2    0    0  0.29230403606E+01 -0.36975390856E+02 -0.16656585132E+02  0.40659138237E+02  0.00000000000E+00 0. -1.
         11    1    3    3    0    0  0.58059152175E+01  0.45767182673E+01  0.21009123759E+01  0.76856251980E+01  0.51100000000E-03 0. -1.
        -11    1    3    3    0    0 -0.15094788171E+02  0.29116097355E+02  0.13999605052E+02  0.35659342353E+02  0.51100000000E-03 0.  1.
        -12    1    3    3    0    0  0.63658325932E+01  0.32825752334E+01  0.55606770372E+00  0.71838942126E+01  0.00000000000E+00 0.  1.
</event>
<event>
 7    1  0.5972636E-013  0.5052881E+02  0.7816164E-02  0.1300439E+00
        -11   -1    0    0    0    0  0.00000000000E+00  0.00000000000E+00  0.45593999997E+02  0.45594000000E+02  0.51100000000E-03 0.  1.
         11   -1    0    0    0    0 -0.00000000000E+00 -0.00000000000E+00 -0.45593999997E+02  0.45594000000E+02  0.51100000000E-03 0. -1.
    9900012    2    1    2    0    0  0.39803343029E+02  0.60133214874E+01  0.57186901735E+01  0.50528811999E+02  0.29999854551E+02 0.  0.
         12    1    1    2    0    0 -0.39803343029E+02 -0.60133214874E+01 -0.57186901735E+01  0.40659188001E+02  0.00000000000E+00 0. -1.
         11    1    3    3    0    0  0.53613862846E+01  0.57957553760E+01 -0.90754195158E+01  0.12029068248E+02  0.51100000000E-03 0. -1.
        -11    1    3    3    0    0  0.31066467551E+02 -0.25525589461E+01  0.13207602796E+02  0.33853828959E+02  0.51100000000E-03 0.  1.
        -12    1    3    3    0    0  0.33754891933E+01  0.27701250576E+01  0.15865068928E+01  0.46459147915E+01  0.00000000000E+00 0.  1.
</event>
<event>
 7    1  0.5972636E-013  0.5052886E+02  0.7816164E-02  0.1300439E+00
        -11   -1    0    0    0    0  0.00000000000E+00  0.00000000000E+00  0.45593999997E+02  0.45594000000E+02  0.51100000000E-03 0. -1.
         11   -1    0    0    0    0 -0.00000000000E+00 -0.00000000000E+00 -0.45593999997E+02  0.45594000000E+02  0.51100000000E-03 0.  1.
    9900012    2    1    2    0    0 -0.33603258920E+02  0.19892332022E+01 -0.22804152904E+02  0.50528862670E+02  0.30000008571E+02 0.  0.
         12    1    1    2    0    0  0.33603258920E+02 -0.19892332022E+01  0.22804152904E+02  0.40659137330E+02  0.00000000000E+00 0. -1.
         11    1    3    3    0    0 -0.24892146847E+02 -0.82377943797E+01 -0.28011050118E+01  0.26369042843E+02  0.51100000000E-03 0. -1.
        -11    1    3    3    0    0 -0.56522428703E+01  0.53748580860E+01 -0.10994556234E+02  0.13480252815E+02  0.51100000000E-03 0.  1.
         12    1    3    3    0    0 -0.30588692026E+01  0.48521694959E+01 -0.90084916583E+01  0.10679567012E+02  0.00000000000E+00 0. -1.
</event>
<event>
 7    1  0.5972636E-013  0.5052887E+02  0.7816164E-02  0.1300439E+00
        -11   -1    0    0    0    0  0.00000000000E+00  0.00000000000E+00  0.45593999997E+02  0.45594000000E+02  0.51100000000E-03 0. -1.
         11   -1    0    0    0    0 -0.00000000000E+00 -0.00000000000E+00 -0.45593999997E+02  0.45594000000E+02  0.51100000000E-03 0.  1.
    9900012    2    1    2    0    0 -0.25530729135E+02 -0.30651977871E+02  0.78614650128E+01  0.50528874213E+02  0.30000043659E+02 0.  0.
         12    1    1    2    0    0  0.25530729135E+02  0.30651977871E+02 -0.78614650128E+01  0.40659125787E+02  0.00000000000E+00 0. -1.
         11    1    3    3    0    0 -0.14749584590E+02 -0.14604139547E+02  0.10327090006E+02  0.23183613302E+02  0.51100000000E-03 0. -1.
        -11    1    3    3    0    0 -0.98502011431E+01 -0.17950536956E+02 -0.75611201717E+01  0.21827019451E+02  0.51100000000E-03 0.  1.
        -12    1    3    3    0    0 -0.93094340227E+00  0.19026986326E+01  0.50954951782E+01  0.55182414604E+01  0.00000000000E+00 0.  1.
</event>
<event>
 7    1  0.5972636E-013  0.5052886E+02  0.7816164E-02  0.1300439E+00
        -11   -1    0    0    0    0  0.00000000000E+00  0.00000000000E+00  0.45593999997E+02  0.45594000000E+02  0.51100000000E-03 0. -1.
         11   -1    0    0    0    0 -0.00000000000E+00 -0.00000000000E+00 -0.45593999997E+02  0.45594000000E+02  0.51100000000E-03 0.  1.
    9900012    2    1    2    0    0 -0.35828296252E+02  0.43756261470E+00 -0.19217374697E+02  0.50528858794E+02  0.29999996790E+02 0.  0.
         12    1    1    2    0    0  0.35828296252E+02 -0.43756261470E+00  0.19217374697E+02  0.40659141206E+02  0.00000000000E+00 0. -1.
         11    1    3    3    0    0  0.60508049439E+00 -0.60398475783E+01  0.25344945524E+01  0.65779589594E+01  0.51100000000E-03 0. -1.
        -11    1    3    3    0    0 -0.33419635914E+02  0.38562651872E+01 -0.16842401941E+02  0.37621926442E+02  0.51100000000E-03 0.  1.
         12    1    3    3    0    0 -0.30137408325E+01  0.26211450058E+01 -0.49094673086E+01  0.63289733923E+01  0.00000000000E+00 0. -1.
</event>
<event>
 7    1  0.5972636E-013  0.5052886E+02  0.7816164E-02  0.1300439E+00
        -11   -1    0    0    0    0  0.00000000000E+00  0.00000000000E+00  0.45593999997E+02  0.45594000000E+02  0.51100000000E-03 0.  1.
         11   -1    0    0    0    0 -0.00000000000E+00 -0.00000000000E+00 -0.45593999997E+02  0.45594000000E+02  0.51100000000E-03 0. -1.
    9900012    2    1    2    0    0  0.30108034814E+02 -0.19915488705E+02  0.18709498612E+02  0.50528858481E+02  0.29999995839E+02 0.  0.
         12    1    1    2    0    0 -0.30108034814E+02  0.19915488705E+02 -0.18709498612E+02  0.40659141519E+02  0.00000000000E+00 0. -1.
         11    1    3    3    0    0  0.10893305791E+02 -0.21930554345E+00  0.15926395953E+02  0.19296691279E+02  0.51100000000E-03 0. -1.
        -11    1    3    3    0    0  0.13498973779E+02 -0.20542137394E+02 -0.50184281036E+00  0.24585637032E+02  0.51100000000E-03 0.  1.
        -12    1    3    3    0    0  0.57157552440E+01  0.84595423200E+00  0.32849454695E+01  0.66465301707E+01  0.00000000000E+00 0.  1.
</event>
<event>
 7    1  0.5972636E-013  0.5052886E+02  0.7816164E-02  0.1300439E+00
        -11   -1    0    0    0    0  0.00000000000E+00  0.00000000000E+00  0.45593999997E+02  0.45594000000E+02  0.51100000000E-03 0. -1.
         11   -1    0    0    0    0 -0.00000000000E+00 -0.00000000000E+00 -0.45593999997E+02  0.45594000000E+02  0.51100000000E-03 0.  1.
    9900012    2    1    2    0    0 -0.28663600080E+02  0.24115958359E+02 -0.15810897630E+02  0.50528857105E+02  0.29999991656E+02 0.  0.
         12    1    1    2    0    0  0.28663600080E+02 -0.24115958359E+02  0.15810897630E+02  0.40659142895E+02  0.00000000000E+00 0. -1.
         11    1    3    3    0    0 -0.51200720308E+01 -0.51073744400E+01 -0.78066675072E+01  0.10641638459E+02  0.51100000000E-03 0. -1.
        -11    1    3    3    0    0 -0.20790928589E+02  0.19606217363E+02 -0.30957779509E+01  0.28744570136E+02  0.51100000000E-03 0.  1.
         12    1    3    3    0    0 -0.27525994594E+01  0.96171154355E+01 -0.49084521724E+01  0.11142648510E+02  0.00000000000E+00 0. -1.
</event>
<event>
 7    1  0.5972636E-013  0.5052885E+02  0.7816164E-02  0.1300439E+00
        -11   -1    0    0    0    0  0.00000000000E+00  0.00000000000E+00  0.45593999997E+02  0.45594000000E+02  0.51100000000E-03 0. -1.
         11   -1    0    0    0    0 -0.00000000000E+00 -0.00000000000E+00 -0.45593999997E+02  0.45594000000E+02  0.51100000000E-03 0.  1.
    9900012    2    1    2    0    0 -0.16145241152E+02 -0.21666159831E+02 -0.30382151435E+02  0.50528850729E+02  0.29999972275E+02 0.  0.
         12    1    1    2    0    0  0.16145241152E+02  0.21666159831E+02  0.30382151435E+02  0.40659149271E+02  0.00000000000E+00 0. -1.
         11    1    3    3    0    0 -0.22874350998E+02 -0.12596669143E+02 -0.26839010028E+02  0.37446554803E+02  0.51100000000E-03 0. -1.
        -11    1    3    3    0    0  0.20687415794E+01 -0.60835379163E+01  0.15171935383E+00  0.64274523977E+01  0.51100000000E-03 0.  1.
         12    1    3    3    0    0  0.46603682669E+01 -0.29859527716E+01 -0.36948607603E+01  0.66548435275E+01  0.00000000000E+00 0. -1.
</event>
<event>
 7    1  0.5972636E-013  0.5052889E+02  0.7816164E-02  0.1300439E+00
        -11   -1    0    0    0    0  0.00000000000E+00  0.00000000000E+00  0.45593999997E+02  0.45594000000E+02  0.51100000000E-03 0.  1.
         11   -1    0    0    0    0 -0.00000000000E+00 -0.00000000000E+00 -0.45593999997E+02  0.45594000000E+02  0.51100000000E-03 0. -1.
    9900012    2    1    2    0    0  0.23086068869E+02  0.25650438854E+02  0.21500034185E+02  0.50528892051E+02  0.30000097877E+02 0.  0.
         12    1    1    2    0    0 -0.23086068869E+02 -0.25650438854E+02 -0.21500034185E+02  0.40659107949E+02  0.00000000000E+00 0. -1.
         11    1    3    3    0    0  0.15018396735E+02  0.11157247170E+02  0.41133287475E+00  0.18713781015E+02  0.51100000000E-03 0. -1.
        -11    1    3    3    0    0 -0.49168633740E-01  0.15425780018E+02  0.11645759728E+02  0.19328239098E+02  0.51100000000E-03 0.  1.
        -12    1    3    3    0    0  0.81168407686E+01 -0.93258833354E+00  0.94429415822E+01  0.12486871938E+02  0.00000000000E+00 0.  1.
</event>
<event>
 7    1  0.5972636E-013  0.5052887E+02  0.7816164E-02  0.1300439E+00
        -11   -1    0    0    0    0  0.00000000000E+00  0.00000000000E+00  0.45593999997E+02  0.45594000000E+02  0.51100000000E-03 0.  1.
         11   -1    0    0    0    0 -0.00000000000E+00 -0.00000000000E+00 -0.45593999997E+02  0.45594000000E+02  0.51100000000E-03 0. -1.
    9900012    2    1    2    0    0 -0.18747068768E+02  0.35448720820E+02  0.67156741007E+01  0.50528872196E+02  0.30000037526E+02 0.  0.
         12    1    1    2    0    0  0.18747068768E+02 -0.35448720820E+02 -0.67156741007E+01  0.40659127804E+02  0.00000000000E+00 0. -1.
         11    1    3    3    0    0 -0.11301549090E+02  0.34011260349E-01  0.35820811510E+01  0.11855693747E+02  0.51100000000E-03 0. -1.
        -11    1    3    3    0    0 -0.98389459507E+00  0.14955710698E+02 -0.48918805208E+01  0.15766160799E+02  0.51100000000E-03 0.  1.
        -12    1    3    3    0    0 -0.64616250831E+01  0.20458998862E+02  0.80254734705E+01  0.22907017649E+02  0.00000000000E+00 0.  1.
</event>
<event>
 7    1  0.5972636E-013  0.5052886E+02  0.7816164E-02  0.1300439E+00
        -11   -1    0    0    0    0  0.00000000000E+00  0.00000000000E+00  0.45593999997E+02  0.45594000000E+02  0.51100000000E-03 0. -1.
         11   -1    0    0    0    0 -0.00000000000E+00 -0.00000000000E+00 -0.45593999997E+02  0.45594000000E+02  0.51100000000E-03 0.  1.
    9900012    2    1    2    0    0 -0.15570991259E+02 -0.10429389569E+02 -0.36082375666E+02  0.50528858725E+02  0.29999996580E+02 0.  0.
         12    1    1    2    0    0  0.15570991259E+02  0.10429389569E+02  0.36082375666E+02  0.40659141275E+02  0.00000000000E+00 0. -1.
         11    1    3    3    0    0 -0.84438993093E+01  0.60427630374E+01 -0.14614291857E+02  0.17927407716E+02  0.51100000000E-03 0. -1.
        -11    1    3    3    0    0 -0.62479028052E+01 -0.95987700012E+01 -0.22827917031E+02  0.25539899594E+02  0.51100000000E-03 0.  1.
         12    1    3    3    0    0 -0.87918914454E+00 -0.68733826051E+01  0.13598332232E+01  0.70615514147E+01  0.00000000000E+00 0. -1.
</event>
<event>
 7    1  0.5972636E-013  0.5052886E+02  0.7816164E-02  0.1300439E+00
        -11   -1    0    0    0    0  0.00000000000E+00  0.00000000000E+00  0.45593999997E+02  0.45594000000E+02  0.51100000000E-03 0. -1.
         11   -1    0    0    0    0 -0.00000000000E+00 -0.00000000000E+00 -0.45593999997E+02  0.45594000000E+02  0.51100000000E-03 0.  1.
    9900012    2    1    2    0    0  0.18650360710E+02 -0.13601268393E+02 -0.33471406031E+02  0.50528862304E+02  0.30000007458E+02 0.  0.
         12    1    1    2    0    0 -0.18650360710E+02  0.13601268393E+02  0.33471406031E+02  0.40659137696E+02  0.00000000000E+00 0. -1.
         11    1    3    3    0    0  0.99951526305E+01 -0.17257262375E+02 -0.16115698549E+02  0.25640435268E+02  0.51100000000E-03 0. -1.
        -11    1    3    3    0    0  0.20955452481E+01  0.95780681794E-01  0.27404001332E+01  0.34511269141E+01  0.51100000000E-03 0.  1.
        -12    1    3    3    0    0  0.65596628315E+01  0.35602132996E+01 -0.20096107616E+02  0.21437300122E+02  0.00000000000E+00 0.  1.
</event>
<event>
 7    1  0.5972636E-013  0.5052890E+02  0.7816164E-02  0.1300439E+00
        -11   -1    0    0    0    0  0.00000000000E+00  0.00000000000E+00  0.45593999997E+02  0.45594000000E+02  0.51100000000E-03 0.  1.
         11   -1    0    0    0    0 -0.00000000000E+00 -0.00000000000E+00 -0.45593999997E+02  0.45594000000E+02  0.51100000000E-03 0. -1.
    9900012    2    1    2    0    0 -0.16963974531E+02  0.23341580583E-02  0.36951132298E+02  0.50528897508E+02  0.30000114465E+02 0.  0.
         12    1    1    2    0    0  0.16963974531E+02 -0.23341580583E-02 -0.36951132298E+02  0.40659102492E+02  0.00000000000E+00 0. -1.
         11    1    3    3    0    0 -0.38431941046E+01  0.91419898934E+01  0.72850544605E+01  0.12305207795E+02  0.51100000000E-03 0.  1.
        -11    1    3    3    0    0 -0.29862762458E+01 -0.12930226355E+02  0.16955433084E+02  0.21531263565E+02  0.51100000000E-03 0. -1.
         12    1    3    3    0    0 -0.10134504181E+02  0.37905706193E+01  0.12710644754E+02  0.16692426147E+02  0.00000000000E+00 0. -1.
</event>
<event>
 7    1  0.5972636E-013  0.5052886E+02  0.7816164E-02  0.1300439E+00
        -11   -1    0    0    0    0  0.00000000000E+00  0.00000000000E+00  0.45593999997E+02  0.45594000000E+02  0.51100000000E-03 0.  1.
         11   -1    0    0    0    0 -0.00000000000E+00 -0.00000000000E+00 -0.45593999997E+02  0.45594000000E+02  0.51100000000E-03 0. -1.
    9900012    2    1    2    0    0  0.16596935202E+02  0.96932649237E+01  0.35829427552E+02  0.50528861770E+02  0.30000005835E+02 0.  0.
         12    1    1    2    0    0 -0.16596935202E+02 -0.96932649237E+01 -0.35829427552E+02  0.40659138230E+02  0.00000000000E+00 0. -1.
         11    1    3    3    0    0 -0.23117972057E+01 -0.28508667978E+01  0.18983292301E+02  0.19334870950E+02  0.51100000000E-03 0. -1.
        -11    1    3    3    0    0  0.17107983350E+02  0.11689668466E+02  0.81387950923E+01  0.22261433668E+02  0.51100000000E-03 0.  1.
        -12    1    3    3    0    0  0.18007490574E+01  0.85446325535E+00  0.87073401583E+01  0.89325571510E+01  0.00000000000E+00 0.  1.
</event>
<event>
 7    1  0.5972636E-013  0.5052886E+02  0.7816164E-02  0.1300439E+00
        -11   -1    0    0    0    0  0.00000000000E+00  0.00000000000E+00  0.45593999997E+02  0.45594000000E+02  0.51100000000E-03 0. -1.
         11   -1    0    0    0    0 -0.00000000000E+00 -0.00000000000E+00 -0.45593999997E+02  0.45594000000E+02  0.51100000000E-03 0.  1.
    9900012    2    1    2    0    0 -0.19490628729E+02  0.34456240600E+02  0.92762466251E+01  0.50528857412E+02  0.29999992589E+02 0.  0.
         12    1    1    2    0    0  0.19490628729E+02 -0.34456240600E+02 -0.92762466251E+01  0.40659142588E+02  0.00000000000E+00 0. -1.
         11    1    3    3    0    0 -0.13112338969E+02  0.73066659614E+01  0.35893516282E+01  0.15433866854E+02  0.51100000000E-03 0. -1.
        -11    1    3    3    0    0 -0.10915777200E+02  0.27778675754E+02  0.36054889742E+01  0.30063409146E+02  0.51100000000E-03 0.  1.
        -12    1    3    3    0    0  0.45374874387E+01 -0.62910111498E+00  0.20814060227E+01  0.50315814115E+01  0.00000000000E+00 0.  1.
</event>
<event>
 7    1  0.5972636E-013  0.5052886E+02  0.7816164E-02  0.1300439E+00
        -11   -1    0    0    0    0  0.00000000000E+00  0.00000000000E+00  0.45593999997E+02  0.45594000000E+02  0.51100000000E-03 0.  1.
         11   -1    0    0    0    0 -0.00000000000E+00 -0.00000000000E+00 -0.45593999997E+02  0.45594000000E+02  0.51100000000E-03 0. -1.
    9900012    2    1    2    0    0 -0.93420815024E+01  0.89556355293E+01  0.38544625531E+02  0.50528855250E+02  0.29999986017E+02 0.  0.
         12    1    1    2    0    0  0.93420815024E+01 -0.89556355293E+01 -0.38544625531E+02  0.40659144750E+02  0.00000000000E+00 0. -1.
         11    1    3    3    0    0 -0.14962867899E+01  0.45283956606E+01 -0.13819968107E+01  0.49653959422E+01  0.51100000000E-03 0. -1.
        -11    1    3    3    0    0 -0.82116024780E+01  0.10742753661E+02  0.35075061877E+02  0.37591184304E+02  0.51100000000E-03 0.  1.
        -12    1    3    3    0    0  0.36580776552E+00 -0.63155137925E+01  0.48515604647E+01  0.79722750032E+01  0.00000000000E+00 0.  1.
</event>
<event>
 7    1  0.5972636E-013  0.5052885E+02  0.7816164E-02  0.1300439E+00
        -11   -1    0    0    0    0  0.00000000000E+00  0.00000000000E+00  0.45593999997E+02  0.45594000000E+02  0.51100000000E-03 0.  1.
         11   -1    0    0    0    0 -0.00000000000E+00 -0.00000000000E+00 -0.45593999997E+02  0.45594000000E+02  0.51100000000E-03 0. -1.
    9900012    2    1    2    0    0 -0.35505551868E+01  0.40499514631E+02 -0.59087849525E+00  0.50528852629E+02  0.29999978052E+02 0.  0.
         12    1    1    2    0    0  0.35505551868E+01 -0.40499514631E+02  0.59087849525E+00  0.40659147371E+02  0.00000000000E+00 0. -1.
         11    1    3    3    0    0 -0.11854249448E+01  0.10577210979E+02 -0.79052304573E+01  0.13258027502E+02  0.51100000000E-03 0. -1.
        -11    1    3    3    0    0 -0.19219635754E+01  0.32986359638E+02  0.82118071584E+01  0.34047432256E+02  0.51100000000E-03 0.  1.
        -12    1    3    3    0    0 -0.44316666668E+00 -0.30640559854E+01 -0.89745519635E+00  0.32233928717E+01  0.00000000000E+00 0.  1.
</event>
<event>
 7    1  0.5972636E-013  0.5052882E+02  0.7816164E-02  0.1300439E+00
        -11   -1    0    0    0    0  0.00000000000E+00  0.00000000000E+00  0.45593999997E+02  0.45594000000E+02  0.51100000000E-03 0. -1.
         11   -1    0    0    0    0 -0.00000000000E+00 -0.00000000000E+00 -0.45593999997E+02  0.45594000000E+02  0.51100000000E-03 0.  1.
    9900012    2    1    2    0    0  0.22664514719E+02 -0.16070094450E+02 -0.29685694099E+02  0.50528823948E+02  0.29999890873E+02 0.  0.
         12    1    1    2    0    0 -0.22664514719E+02  0.16070094450E+02  0.29685694099E+02  0.40659176052E+02  0.00000000000E+00 0. -1.
         11    1    3    3    0    0  0.46527266008E+01  0.84606125322E+01 -0.86657313191E+01  0.12974002035E+02  0.51100000000E-03 0. -1.
        -11    1    3    3    0    0  0.53153689295E+01 -0.12542056458E+02 -0.83051832202E+01  0.15954071444E+02  0.51100000000E-03 0.  1.
         12    1    3    3    0    0  0.12696419189E+02 -0.11988650524E+02 -0.12714779560E+02  0.21600750470E+02  0.00000000000E+00 0. -1.
</event>
<event>
 7    1  0.5972636E-013  0.5052886E+02  0.7816164E-02  0.1300439E+00
        -11   -1    0    0    0    0  0.00000000000E+00  0.00000000000E+00  0.45593999997E+02  0.45594000000E+02  0.51100000000E-03 0.  1.
         11   -1    0    0    0    0 -0.00000000000E+00 -0.00000000000E+00 -0.45593999997E+02  0.45594000000E+02  0.51100000000E-03 0. -1.
    9900012    2    1    2    0    0 -0.37915715274E+02 -0.66523859707E+01 -0.13088531966E+02  0.50528863600E+02  0.30000011397E+02 0.  0.
         12    1    1    2    0    0  0.37915715274E+02  0.66523859707E+01  0.13088531966E+02  0.40659136400E+02  0.00000000000E+00 0. -1.
         11    1    3    3    0    0  0.15108208119E+01  0.10477912255E+01  0.27164577948E+01  0.32801812740E+01  0.51100000000E-03 0. -1.
        -11    1    3    3    0    0 -0.35952006456E+02  0.86975697742E-01 -0.11904270964E+02  0.37871704483E+02  0.51100000000E-03 0.  1.
        -12    1    3    3    0    0 -0.34745296297E+01 -0.77871528939E+01 -0.39007187964E+01  0.93769778431E+01  0.00000000000E+00 0.  1.
</event>
<event>
 7    1  0.5972636E-013  0.5052886E+02  0.7816164E-02  0.1300439E+00
        -11   -1    0    0    0    0  0.00000000000E+00  0.00000000000E+00  0.45593999997E+02  0.45594000000E+02  0.51100000000E-03 0.  1.
         11   -1    0    0    0    0 -0.00000000000E+00 -0.00000000000E+00 -0.45593999997E+02  0.45594000000E+02  0.51100000000E-03 0. -1.
    9900012    2    1    2    0    0 -0.19542354465E+02 -0.33965024491E+02  0.10846174475E+02  0.50528855796E+02  0.29999987677E+02 0.  0.
         12    1    1    2    0    0  0.19542354465E+02  0.33965024491E+02 -0.10846174475E+02  0.40659144204E+02  0.00000000000E+00 0. -1.
         11    1    3    3    0    0 -0.22413693843E+01 -0.14498944367E+02  0.10898077428E+02  0.18275973746E+02  0.51100000000E-03 0.  1.
        -11    1    3    3    0    0 -0.11643317918E+02 -0.14470938887E+02 -0.89229951064E+01  0.20605697424E+02  0.51100000000E-03 0. -1.
        -12    1    3    3    0    0 -0.56576671630E+01 -0.49951412361E+01  0.88710921538E+01  0.11647184625E+02  0.00000000000E+00 0.  1.
</event>
<event>
 7    1  0.5972636E-013  0.5052886E+02  0.7816164E-02  0.1300439E+00
        -11   -1    0    0    0    0  0.00000000000E+00  0.00000000000E+00  0.45593999997E+02  0.45594000000E+02  0.51100000000E-03 0.  1.
         11   -1    0    0    0    0 -0.00000000000E+00 -0.00000000000E+00 -0.45593999997E+02  0.45594000000E+02  0.51100000000E-03 0. -1.
    9900012    2    1    2    0    0  0.30544821584E+02  0.26746306564E+02  0.21943167182E+01  0.50528855072E+02  0.29999985476E+02 0.  0.
         12    1    1    2    0    0 -0.30544821584E+02 -0.26746306564E+02 -0.21943167182E+01  0.40659144928E+02  0.00000000000E+00 0. -1.
         11    1    3    3    0    0  0.17384692760E+02  0.84493411272E+01 -0.97165940190E+01  0.21634026612E+02  0.51100000000E-03 0. -1.
        -11    1    3    3    0    0 -0.19904618009E+01  0.32527509339E+01  0.53277569076E+01  0.65518944395E+01  0.51100000000E-03 0.  1.
         12    1    3    3    0    0  0.15150590625E+02  0.15044214503E+02  0.65831538296E+01  0.22342934021E+02  0.00000000000E+00 0. -1.
</event>
<event>
 7    1  0.5972636E-013  0.5052883E+02  0.7816164E-02  0.1300439E+00
        -11   -1    0    0    0    0  0.00000000000E+00  0.00000000000E+00  0.45593999997E+02  0.45594000000E+02  0.51100000000E-03 0.  1.
         11   -1    0    0    0    0 -0.00000000000E+00 -0.00000000000E+00 -0.45593999997E+02  0.45594000000E+02  0.51100000000E-03 0. -1.
    9900012    2    1    2    0    0 -0.20931089612E+02 -0.27870906376E+02  0.20934901412E+02  0.50528830903E+02  0.29999912011E+02 0.  0.
         12    1    1    2    0    0  0.20931089612E+02  0.27870906376E+02 -0.20934901412E+02  0.40659169097E+02  0.00000000000E+00 0. -1.
         11    1    3    3    0    0  0.56294812935E+01 -0.69095397457E+01  0.14770857852E+01  0.90340789132E+01  0.51100000000E-03 0. -1.
        -11    1    3    3    0    0 -0.20411808394E+02 -0.19867102144E+02  0.10054845479E+02  0.30206681171E+02  0.51100000000E-03 0.  1.
         12    1    3    3    0    0 -0.61487625122E+01 -0.10942644859E+01  0.94029701478E+01  0.11288070818E+02  0.00000000000E+00 0. -1.
</event>
<event>
 7    1  0.5972636E-013  0.5052886E+02  0.7816164E-02  0.1300439E+00
        -11   -1    0    0    0    0  0.00000000000E+00  0.00000000000E+00  0.45593999997E+02  0.45594000000E+02  0.51100000000E-03 0. -1.
         11   -1    0    0    0    0 -0.00000000000E+00 -0.00000000000E+00 -0.45593999997E+02  0.45594000000E+02  0.51100000000E-03 0.  1.
    9900012    2    1    2    0    0  0.26657573977E+01  0.39038140354E+02 -0.11049107030E+02  0.50528862885E+02  0.30000009225E+02 0.  0.
         12    1    1    2    0    0 -0.26657573977E+01 -0.39038140354E+02  0.11049107030E+02  0.40659137115E+02  0.00000000000E+00 0. -1.
         11    1    3    3    0    0 -0.40716309272E+01  0.33665829840E+02  0.50572705899E+00  0.33914923520E+02  0.51100000000E-03 0. -1.
        -11    1    3    3    0    0  0.31478747147E+01 -0.10281315980E+01 -0.75720702974E+01  0.82645277331E+01  0.51100000000E-03 0.  1.
        -12    1    3    3    0    0  0.35895136103E+01  0.64004421117E+01 -0.39827637918E+01  0.83494116322E+01  0.00000000000E+00 0.  1.
</event>
<event>
 7    1  0.5972636E-013  0.5052886E+02  0.7816164E-02  0.1300439E+00
        -11   -1    0    0    0    0  0.00000000000E+00  0.00000000000E+00  0.45593999997E+02  0.45594000000E+02  0.51100000000E-03 0. -1.
         11   -1    0    0    0    0 -0.00000000000E+00 -0.00000000000E+00 -0.45593999997E+02  0.45594000000E+02  0.51100000000E-03 0.  1.
    9900012    2    1    2    0    0 -0.35726253566E+02 -0.11880054809E+01 -0.19374963525E+02  0.50528858808E+02  0.29999996832E+02 0.  0.
         12    1    1    2    0    0  0.35726253566E+02  0.11880054809E+01  0.19374963525E+02  0.40659141192E+02  0.00000000000E+00 0. -1.
         11    1    3    3    0    0 -0.23657390619E+02  0.41021956391E+01 -0.14388851258E+02  0.27991769875E+02  0.51100000000E-03 0.  1.
        -11    1    3    3    0    0  0.11214431683E+01 -0.69783484408E+01  0.22249894521E+01  0.74098286123E+01  0.51100000000E-03 0. -1.
         12    1    3    3    0    0 -0.13190306116E+02  0.16881473208E+01 -0.72111017186E+01  0.15127260320E+02  0.00000000000E+00 0. -1.
</event>
<event>
 7    1  0.5972636E-013  0.5052885E+02  0.7816164E-02  0.1300439E+00
        -11   -1    0    0    0    0  0.00000000000E+00  0.00000000000E+00  0.45593999997E+02  0.45594000000E+02  0.51100000000E-03 0.  1.
         11   -1    0    0    0    0 -0.00000000000E+00 -0.00000000000E+00 -0.45593999997E+02  0.45594000000E+02  0.51100000000E-03 0. -1.
    9900012    2    1    2    0    0  0.23853641780E+02  0.71720276482E+00  0.32918923634E+02  0.50528854175E+02  0.29999982751E+02 0.  0.
         12    1    1    2    0    0 -0.23853641780E+02 -0.71720276482E+00 -0.32918923634E+02  0.40659145825E+02  0.00000000000E+00 0. -1.
         11    1    3    3    0    0  0.12737102486E+02  0.11254796110E+02  0.21539270760E+02  0.27438010138E+02  0.51100000000E-03 0. -1.
        -11    1    3    3    0    0  0.68862966208E+01 -0.13139826949E+02  0.10148133076E+02  0.17973890469E+02  0.51100000000E-03 0.  1.
        -12    1    3    3    0    0  0.42302426734E+01  0.26022336035E+01  0.12315197977E+01  0.51169535679E+01  0.00000000000E+00 0.  1.
</event>
<event>
 7    1  0.5972636E-013  0.5052886E+02  0.7816164E-02  0.1300439E+00
        -11   -1    0    0    0    0  0.00000000000E+00  0.00000000000E+00  0.45593999997E+02  0.45594000000E+02  0.51100000000E-03 0. -1.
         11   -1    0    0    0    0 -0.00000000000E+00 -0.00000000000E+00 -0.45593999997E+02  0.45594000000E+02  0.51100000000E-03 0.  1.
    9900012    2    1    2    0    0  0.39763654138E+02 -0.67886222426E+01 -0.50923597525E+01  0.50528859451E+02  0.29999998786E+02 0.  0.
         12    1    1    2    0    0 -0.39763654138E+02  0.67886222426E+01  0.50923597525E+01  0.40659140549E+02  0.00000000000E+00 0. -1.
         11    1    3    3    0    0  0.18232435540E+02 -0.27581769850E+01  0.42028391887E+01  0.18912776198E+02  0.51100000000E-03 0.  1.
        -11    1    3    3    0    0  0.29301212216E+01 -0.30547901873E+01 -0.12063729933E+02  0.12784793061E+02  0.51100000000E-03 0. -1.
         12    1    3    3    0    0  0.18601097376E+02 -0.97565507028E+00  0.27685309919E+01  0.18831290191E+02  0.00000000000E+00 0. -1.
</event>
<event>
 7    1  0.5972636E-013  0.5052888E+02  0.7816164E-02  0.1300439E+00
        -11   -1    0    0    0    0  0.00000000000E+00  0.00000000000E+00  0.45593999997E+02  0.45594000000E+02  0.51100000000E-03 0.  1.
         11   -1    0    0    0    0 -0.00000000000E+00 -0.00000000000E+00 -0.45593999997E+02  0.45594000000E+02  0.51100000000E-03 0. -1.
    9900012    2    1    2    0    0 -0.26284074070E+02  0.79511400362E+01  0.29984848133E+02  0.50528876852E+02  0.30000051679E+02 0.  0.
         12    1    1    2    0    0  0.26284074070E+02 -0.79511400362E+01 -0.29984848133E+02  0.40659123148E+02  0.00000000000E+00 0. -1.
         11    1    3    3    0    0 -0.25406791102E+01  0.46521510525E+00 -0.20813937211E+01  0.33171788493E+01  0.51100000000E-03 0. -1.
        -11    1    3    3    0    0 -0.26966588228E+01  0.78765934551E+01  0.22686999245E+02  0.24166353226E+02  0.51100000000E-03 0.  1.
        -12    1    3    3    0    0 -0.21046736137E+02 -0.39066852417E+00  0.93792426099E+01  0.23045344776E+02  0.00000000000E+00 0.  1.
</event>
<event>
 7    1  0.5972636E-013  0.5052886E+02  0.7816164E-02  0.1300439E+00
        -11   -1    0    0    0    0  0.00000000000E+00  0.00000000000E+00  0.45593999997E+02  0.45594000000E+02  0.51100000000E-03 0.  1.
         11   -1    0    0    0    0 -0.00000000000E+00 -0.00000000000E+00 -0.45593999997E+02  0.45594000000E+02  0.51100000000E-03 0. -1.
    9900012    2    1    2    0    0  0.19146538900E+02  0.21202395196E+02  0.28931543125E+02  0.50528859558E+02  0.29999999112E+02 0.  0.
         12    1    1    2    0    0 -0.19146538900E+02 -0.21202395196E+02 -0.28931543125E+02  0.40659140442E+02  0.00000000000E+00 0. -1.
         11    1    3    3    0    0  0.12546570997E+02  0.47618921387E+01  0.51234940437E+01  0.14364618060E+02  0.51100000000E-03 0. -1.
        -11    1    3    3    0    0 -0.57854915248E+01  0.68339527778E+01  0.16709581139E+02  0.18957450379E+02  0.51100000000E-03 0.  1.
        -12    1    3    3    0    0  0.12385459428E+02  0.96065502790E+01  0.70984679428E+01  0.17206791120E+02  0.00000000000E+00 0.  1.
</event>
<event>
 7    1  0.5972636E-013  0.5052886E+02  0.7816164E-02  0.1300439E+00
        -11   -1    0    0    0    0  0.00000000000E+00  0.00000000000E+00  0.45593999997E+02  0.45594000000E+02  0.51100000000E-03 0. -1.
         11   -1    0    0    0    0 -0.00000000000E+00 -0.00000000000E+00 -0.45593999997E+02  0.45594000000E+02  0.51100000000E-03 0.  1.
    9900012    2    1    2    0    0 -0.49753927805E+01  0.15123191100E+02 -0.37412567718E+02  0.50528859999E+02  0.30000000453E+02 0.  0.
         12    1    1    2    0    0  0.49753927805E+01 -0.15123191100E+02  0.37412567718E+02  0.40659140001E+02  0.00000000000E+00 0. -1.
         11    1    3    3    0    0 -0.12822709257E+02  0.30980462388E+01 -0.52524795837E+01  0.14198883943E+02  0.51100000000E-03 0. -1.
        -11    1    3    3    0    0  0.85615077427E+01  0.10052780124E+02 -0.31459658610E+02  0.34118439636E+02  0.51100000000E-03 0.  1.
        -12    1    3    3    0    0 -0.71419126668E+00  0.19723647371E+01 -0.70042952386E+00  0.22115364206E+01  0.00000000000E+00 0.  1.
</event>
<event>
 7    1  0.5972636E-013  0.5052889E+02  0.7816164E-02  0.1300439E+00
        -11   -1    0    0    0    0  0.00000000000E+00  0.00000000000E+00  0.45593999997E+02  0.45594000000E+02  0.51100000000E-03 0.  1.
         11   -1    0    0    0    0 -0.00000000000E+00 -0.00000000000E+00 -0.45593999997E+02  0.45594000000E+02  0.51100000000E-03 0. -1.
    9900012    2    1    2    0    0 -0.19889266071E+01 -0.37040477131E+02 -0.16649643805E+02  0.50528887688E+02  0.30000084616E+02 0.  0.
         12    1    1    2    0    0  0.19889266071E+01  0.37040477131E+02  0.16649643805E+02  0.40659112312E+02  0.00000000000E+00 0. -1.
         11    1    3    3    0    0  0.78393435160E+01 -0.12387555853E+02 -0.14118621574E+02  0.20352943821E+02  0.51100000000E-03 0. -1.
        -11    1    3    3    0    0  0.22306550337E+01 -0.52118059893E+01  0.33100069691E+01  0.65646698277E+01  0.51100000000E-03 0.  1.
         12    1    3    3    0    0 -0.12058925157E+02 -0.19441115289E+02 -0.58410292000E+01  0.23611274039E+02  0.00000000000E+00 0. -1.
</event>
<event>
 7    1  0.5972636E-013  0.5052883E+02  0.7816164E-02  0.1300439E+00
        -11   -1    0    0    0    0  0.00000000000E+00  0.00000000000E+00  0.45593999997E+02  0.45594000000E+02  0.51100000000E-03 0.  1.
         11   -1    0    0    0    0 -0.00000000000E+00 -0.00000000000E+00 -0.45593999997E+02  0.45594000000E+02  0.51100000000E-03 0. -1.
    9900012    2    1    2    0    0 -0.24011427648E+02 -0.27828243643E+02  0.17384141455E+02  0.50528829127E+02  0.29999906615E+02 0.  0.
         12    1    1    2    0    0  0.24011427648E+02  0.27828243643E+02 -0.17384141455E+02  0.40659170873E+02  0.00000000000E+00 0. -1.
         11    1    3    3    0    0 -0.38196456151E+01  0.11631531201E+01  0.98158559324E+00  0.41117062570E+01  0.51100000000E-03 0. -1.
        -11    1    3    3    0    0 -0.12771125812E+02 -0.17692849421E+02  0.22715488906E+02  0.31498127113E+02  0.51100000000E-03 0.  1.
        -12    1    3    3    0    0 -0.74206562208E+01 -0.11298547342E+02 -0.63129330442E+01  0.14918995757E+02  0.00000000000E+00 0.  1.
</event>
<event>
 7    1  0.5972636E-013  0.5052886E+02  0.7816164E-02  0.1300439E+00
        -11   -1    0    0    0    0  0.00000000000E+00  0.00000000000E+00  0.45593999997E+02  0.45594000000E+02  0.51100000000E-03 0.  1.
         11   -1    0    0    0    0 -0.00000000000E+00 -0.00000000000E+00 -0.45593999997E+02  0.45594000000E+02  0.51100000000E-03 0. -1.
    9900012    2    1    2    0    0  0.12586471950E+02 -0.25019611324E+02  0.29474831243E+02  0.50528857071E+02  0.29999991553E+02 0.  0.
         12    1    1    2    0    0 -0.12586471950E+02  0.25019611324E+02 -0.29474831243E+02  0.40659142929E+02  0.00000000000E+00 0. -1.
         11    1    3    3    0    0  0.13773360270E+02 -0.13940869266E+02  0.63038362112E+01  0.20586200238E+02  0.51100000000E-03 0. -1.
        -11    1    3    3    0    0 -0.58071596613E+01 -0.12585795506E+02  0.19120987041E+02  0.23616466661E+02  0.51100000000E-03 0.  1.
         12    1    3    3    0    0  0.46202713416E+01  0.15070534485E+01  0.40500079906E+01  0.63261901718E+01  0.00000000000E+00 0. -1.
</event>
<event>
 7    1  0.5972636E-013  0.5052893E+02  0.7816164E-02  0.1300439E+00
        -11   -1    0    0    0    0  0.00000000000E+00  0.00000000000E+00  0.45593999997E+02  0.45594000000E+02  0.51100000000E-03 0. -1.
         11   -1    0    0    0    0 -0.00000000000E+00 -0.00000000000E+00 -0.45593999997E+02  0.45594000000E+02  0.51100000000E-03 0.  1.
    9900012    2    1    2    0    0 -0.16129317047E+02 -0.19435084119E+02 -0.31863499486E+02  0.50528930131E+02  0.30000213625E+02 0.  0.
         12    1    1    2    0    0  0.16129317047E+02  0.19435084119E+02  0.31863499486E+02  0.40659069869E+02  0.00000000000E+00 0. -1.
         11    1    3    3    0    0 -0.82609886239E+01 -0.28487259667E+01  0.39632549817E+01  0.95951322549E+01  0.51100000000E-03 0. -1.
        -11    1    3    3    0    0 -0.59391069120E+01 -0.80957583072E+01 -0.25623043961E+02  0.27520077681E+02  0.51100000000E-03 0.  1.
        -12    1    3    3    0    0 -0.19292215113E+01 -0.84905998449E+01 -0.10203710507E+02  0.13413720195E+02  0.00000000000E+00 0.  1.
</event>
<event>
 7    1  0.5972636E-013  0.5052885E+02  0.7816164E-02  0.1300439E+00
        -11   -1    0    0    0    0  0.00000000000E+00  0.00000000000E+00  0.45593999997E+02  0.45594000000E+02  0.51100000000E-03 0. -1.
         11   -1    0    0    0    0 -0.00000000000E+00 -0.00000000000E+00 -0.45593999997E+02  0.45594000000E+02  0.51100000000E-03 0.  1.
    9900012    2    1    2    0    0  0.33678001113E+02  0.89441160688E+01 -0.20951411930E+02  0.50528848102E+02  0.29999964291E+02 0.  0.
         12    1    1    2    0    0 -0.33678001113E+02 -0.89441160688E+01  0.20951411930E+02  0.40659151898E+02  0.00000000000E+00 0. -1.
         11    1    3    3    0    0  0.63855877743E+01 -0.90307113407E+01 -0.58671742008E+01  0.12520112296E+02  0.51100000000E-03 0. -1.
        -11    1    3    3    0    0  0.27791932726E+02  0.18483813292E+02 -0.13023561531E+02  0.35828145831E+02  0.51100000000E-03 0.  1.
        -12    1    3    3    0    0 -0.49951938754E+00 -0.50898588280E+00 -0.20606761977E+01  0.21805899751E+01  0.00000000000E+00 0.  1.
</event>
<event>
 7    1  0.5972636E-013  0.5052886E+02  0.7816164E-02  0.1300439E+00
        -11   -1    0    0    0    0  0.00000000000E+00  0.00000000000E+00  0.45593999997E+02  0.45594000000E+02  0.51100000000E-03 0. -1.
         11   -1    0    0    0    0 -0.00000000000E+00 -0.00000000000E+00 -0.45593999997E+02  0.45594000000E+02  0.51100000000E-03 0.  1.
    9900012    2    1    2    0    0  0.15081345802E+02 -0.37320276733E+02 -0.57371944909E+01  0.50528862685E+02  0.30000008616E+02 0.  0.
         12    1    1    2    0    0 -0.15081345802E+02  0.37320276733E+02  0.57371944909E+01  0.40659137315E+02  0.00000000000E+00 0. -1.
         11    1    3    3    0    0  0.75395320783E+01 -0.41066738430E+01  0.41596476928E+01  0.95400200839E+01  0.51100000000E-03 0. -1.
        -11    1    3    3    0    0 -0.56126078967E+01 -0.17843088091E+02 -0.89494597432E+01  0.20735717735E+02  0.51100000000E-03 0.  1.
        -12    1    3    3    0    0  0.13154421621E+02 -0.15370514799E+02 -0.94738244049E+00  0.20253124866E+02  0.00000000000E+00 0.  1.
</event>
<event>
 7    1  0.5972636E-013  0.5052885E+02  0.7816164E-02  0.1300439E+00
        -11   -1    0    0    0    0  0.00000000000E+00  0.00000000000E+00  0.45593999997E+02  0.45594000000E+02  0.51100000000E-03 0. -1.
         11   -1    0    0    0    0 -0.00000000000E+00 -0.00000000000E+00 -0.45593999997E+02  0.45594000000E+02  0.51100000000E-03 0.  1.
    9900012    2    1    2    0    0 -0.20151278869E+02  0.57932305043E+01 -0.34835769773E+02  0.50528850779E+02  0.29999972427E+02 0.  0.
         12    1    1    2    0    0  0.20151278869E+02 -0.57932305043E+01  0.34835769773E+02  0.40659149221E+02  0.00000000000E+00 0. -1.
         11    1    3    3    0    0 -0.22254974715E+01 -0.67837125660E+01 -0.69171454225E+01  0.99407492791E+01  0.51100000000E-03 0. -1.
        -11    1    3    3    0    0 -0.14461389133E+02  0.11485230852E+02 -0.76376098908E+01  0.19984378612E+02  0.51100000000E-03 0.  1.
        -12    1    3    3    0    0 -0.34643922641E+01  0.10917122181E+01 -0.20281014460E+02  0.20603722888E+02  0.00000000000E+00 0.  1.
</event>
<event>
 7    1  0.5972636E-013  0.5052887E+02  0.7816164E-02  0.1300439E+00
        -11   -1    0    0    0    0  0.00000000000E+00  0.00000000000E+00  0.45593999997E+02  0.45594000000E+02  0.51100000000E-03 0. -1.
         11   -1    0    0    0    0 -0.00000000000E+00 -0.00000000000E+00 -0.45593999997E+02  0.45594000000E+02  0.51100000000E-03 0.  1.
    9900012    2    1    2    0    0 -0.12348262779E+02 -0.19711889197E+00 -0.38738179597E+02  0.50528868086E+02  0.30000025033E+02 0.  0.
         12    1    1    2    0    0  0.12348262779E+02  0.19711889197E+00  0.38738179597E+02  0.40659131914E+02  0.00000000000E+00 0. -1.
         11    1    3    3    0    0 -0.21176097811E+02  0.20007531620E+01 -0.20152067978E+02  0.29300784559E+02  0.51100000000E-03 0. -1.
        -11    1    3    3    0    0  0.14868014510E+01  0.12322892072E+01 -0.55767015537E+01  0.59015858652E+01  0.51100000000E-03 0.  1.
         12    1    3    3    0    0  0.73410335810E+01 -0.34301612612E+01 -0.13009410065E+02  0.15326497661E+02  0.00000000000E+00 0. -1.
</event>
<event>
 7    1  0.5972636E-013  0.5052886E+02  0.7816164E-02  0.1300439E+00
        -11   -1    0    0    0    0  0.00000000000E+00  0.00000000000E+00  0.45593999997E+02  0.45594000000E+02  0.51100000000E-03 0.  1.
         11   -1    0    0    0    0 -0.00000000000E+00 -0.00000000000E+00 -0.45593999997E+02  0.45594000000E+02  0.51100000000E-03 0. -1.
    9900012    2    1    2    0    0 -0.30483194574E+01 -0.39370267281E+02 -0.96879046366E+01  0.50528859655E+02  0.29999999408E+02 0.  0.
         12    1    1    2    0    0  0.30483194574E+01  0.39370267281E+02  0.96879046366E+01  0.40659140345E+02  0.00000000000E+00 0. -1.
         11    1    3    3    0    0  0.90168913526E+01 -0.28737171622E+02 -0.31176756529E+00  0.30120201888E+02  0.51100000000E-03 0.  1.
        -11    1    3    3    0    0 -0.35421946875E+01  0.57828062054E+00 -0.18957689200E+00  0.35940911702E+01  0.51100000000E-03 0. -1.
         12    1    3    3    0    0 -0.85230161225E+01 -0.11211376280E+02 -0.91865601793E+01  0.16814566597E+02  0.00000000000E+00 0. -1.
</event>
<event>
 7    1  0.5972636E-013  0.5052885E+02  0.7816164E-02  0.1300439E+00
        -11   -1    0    0    0    0  0.00000000000E+00  0.00000000000E+00  0.45593999997E+02  0.45594000000E+02  0.51100000000E-03 0.  1.
         11   -1    0    0    0    0 -0.00000000000E+00 -0.00000000000E+00 -0.45593999997E+02  0.45594000000E+02  0.51100000000E-03 0. -1.
    9900012    2    1    2    0    0  0.31777323637E+02  0.23647959170E+02 -0.91728991244E+01  0.50528851597E+02  0.29999974916E+02 0.  0.
         12    1    1    2    0    0 -0.31777323637E+02 -0.23647959170E+02  0.91728991244E+01  0.40659148403E+02  0.00000000000E+00 0. -1.
         11    1    3    3    0    0  0.11314275655E+02  0.35760259097E+01 -0.15897249338E+02  0.19837422506E+02  0.51100000000E-03 0. -1.
        -11    1    3    3    0    0  0.82269149824E+01  0.69624077989E+01 -0.16439128112E+01  0.10902279673E+02  0.51100000000E-03 0.  1.
         12    1    3    3    0    0  0.12236133000E+02  0.13109525462E+02  0.83682630251E+01  0.19789149418E+02  0.00000000000E+00 0. -1.
</event>
<event>
 7    1  0.5972636E-013  0.5052886E+02  0.7816164E-02  0.1300439E+00
        -11   -1    0    0    0    0  0.00000000000E+00  0.00000000000E+00  0.45593999997E+02  0.45594000000E+02  0.51100000000E-03 0.  1.
         11   -1    0    0    0    0 -0.00000000000E+00 -0.00000000000E+00 -0.45593999997E+02  0.45594000000E+02  0.51100000000E-03 0. -1.
    9900012    2    1    2    0    0 -0.71938550078E+01 -0.18400477868E+02  0.35536410945E+02  0.50528860332E+02  0.30000001466E+02 0.  0.
         12    1    1    2    0    0  0.71938550078E+01  0.18400477868E+02 -0.35536410945E+02  0.40659139668E+02  0.00000000000E+00 0. -1.
         11    1    3    3    0    0  0.32354271505E+01  0.52312257437E+01  0.10292766942E+02  0.11990611461E+02  0.51100000000E-03 0. -1.
        -11    1    3    3    0    0 -0.10542901600E+02 -0.23875723063E+02  0.18986272648E+02  0.32275090631E+02  0.51100000000E-03 0.  1.
        -12    1    3    3    0    0  0.11361944134E+00  0.24401945078E+00  0.62573713547E+01  0.62631582401E+01  0.00000000000E+00 0.  1.
</event>
<event>
 7    1  0.5972636E-013  0.5052887E+02  0.7816164E-02  0.1300439E+00
        -11   -1    0    0    0    0  0.00000000000E+00  0.00000000000E+00  0.45593999997E+02  0.45594000000E+02  0.51100000000E-03 0.  1.
         11   -1    0    0    0    0 -0.00000000000E+00 -0.00000000000E+00 -0.45593999997E+02  0.45594000000E+02  0.51100000000E-03 0. -1.
    9900012    2    1    2    0    0 -0.12809027598E+02 -0.32548760950E+02  0.20728526616E+02  0.50528870114E+02  0.30000031198E+02 0.  0.
         12    1    1    2    0    0  0.12809027598E+02  0.32548760950E+02 -0.20728526616E+02  0.40659129886E+02  0.00000000000E+00 0. -1.
         11    1    3    3    0    0 -0.54422949547E+01  0.42671977693E+01 -0.89820827518E-01  0.69163298951E+01  0.51100000000E-03 0. -1.
        -11    1    3    3    0    0 -0.50151248039E+01 -0.34942470398E+02  0.18840296735E+02  0.40013553899E+02  0.51100000000E-03 0.  1.
         12    1    3    3    0    0 -0.23516078394E+01 -0.18734883217E+01  0.19780507092E+01  0.35989863198E+01  0.00000000000E+00 0. -1.
</event>
<event>
 7    1  0.5972636E-013  0.5052886E+02  0.7816164E-02  0.1300439E+00
        -11   -1    0    0    0    0  0.00000000000E+00  0.00000000000E+00  0.45593999997E+02  0.45594000000E+02  0.51100000000E-03 0.  1.
         11   -1    0    0    0    0 -0.00000000000E+00 -0.00000000000E+00 -0.45593999997E+02  0.45594000000E+02  0.51100000000E-03 0. -1.
    9900012    2    1    2    0    0 -0.15950822838E+02 -0.26473508278E+02  0.26417609781E+02  0.50528862082E+02  0.30000006783E+02 0.  0.
         12    1    1    2    0    0  0.15950822838E+02  0.26473508278E+02 -0.26417609781E+02  0.40659137918E+02  0.00000000000E+00 0. -1.
         11    1    3    3    0    0  0.10436436929E+01 -0.24392212032E+02  0.18450224101E+02  0.30601960225E+02  0.51100000000E-03 0. -1.
        -11    1    3    3    0    0 -0.91627701804E+01  0.19096964069E+01  0.29906751014E+01  0.98258554625E+01  0.51100000000E-03 0.  1.
         12    1    3    3    0    0 -0.78316963504E+01 -0.39909926527E+01  0.49767105788E+01  0.10101046395E+02  0.00000000000E+00 0. -1.
</event>
<event>
 7    1  0.5972636E-013  0.5052887E+02  0.7816164E-02  0.1300439E+00
        -11   -1    0    0    0    0  0.00000000000E+00  0.00000000000E+00  0.45593999997E+02  0.45594000000E+02  0.51100000000E-03 0.  1.
         11   -1    0    0    0    0 -0.00000000000E+00 -0.00000000000E+00 -0.45593999997E+02  0.45594000000E+02  0.51100000000E-03 0. -1.
    9900012    2    1    2    0    0  0.27851727174E+02 -0.21584825471E+02  0.20286478016E+02  0.50528873258E+02  0.30000040754E+02 0.  0.
         12    1    1    2    0    0 -0.27851727174E+02  0.21584825471E+02 -0.20286478016E+02  0.40659126742E+02  0.00000000000E+00 0. -1.
         11    1    3    3    0    0  0.11078784972E+02 -0.34137406568E+01 -0.24319255037E+01  0.11845140929E+02  0.51100000000E-03 0. -1.
        -11    1    3    3    0    0 -0.31996573026E+01 -0.59772561686E+01  0.99092697807E+01  0.12006624255E+02  0.51100000000E-03 0.  1.
         12    1    3    3    0    0  0.19972599505E+02 -0.12193828645E+02  0.12809133739E+02  0.26677108073E+02  0.00000000000E+00 0. -1.
</event>
<event>
 7    1  0.5972636E-013  0.5052885E+02  0.7816164E-02  0.1300439E+00
        -11   -1    0    0    0    0  0.00000000000E+00  0.00000000000E+00  0.45593999997E+02  0.45594000000E+02  0.51100000000E-03 0.  1.
         11   -1    0    0    0    0 -0.00000000000E+00 -0.00000000000E+00 -0.45593999997E+02  0.45594000000E+02  0.51100000000E-03 0. -1.
    9900012    2    1    2    0    0  0.36862651946E+02 -0.12639080241E+01  0.17108894046E+02  0.50528845712E+02  0.29999957026E+02 0.  0.
         12    1    1    2    0    0 -0.36862651946E+02  0.12639080241E+01 -0.17108894046E+02  0.40659154288E+02  0.00000000000E+00 0. -1.
         11    1    3    3    0    0  0.16491201608E+02 -0.82946945428E+01  0.16449161483E+02  0.24725221977E+02  0.51100000000E-03 0.  1.
        -11    1    3    3    0    0  0.18250522085E+02  0.10073955640E+02  0.34918886771E+01  0.21136684352E+02  0.51100000000E-03 0. -1.
        -12    1    3    3    0    0  0.21209282517E+01 -0.30431691210E+01 -0.28321561140E+01  0.46669393827E+01  0.00000000000E+00 0.  1.
</event>
<event>
 7    1  0.5972636E-013  0.5052886E+02  0.7816164E-02  0.1300439E+00
        -11   -1    0    0    0    0  0.00000000000E+00  0.00000000000E+00  0.45593999997E+02  0.45594000000E+02  0.51100000000E-03 0.  1.
         11   -1    0    0    0    0 -0.00000000000E+00 -0.00000000000E+00 -0.45593999997E+02  0.45594000000E+02  0.51100000000E-03 0. -1.
    9900012    2    1    2    0    0 -0.39548303146E+01 -0.24087137029E+02  0.32516687716E+02  0.50528857939E+02  0.29999994192E+02 0.  0.
         12    1    1    2    0    0  0.39548303146E+01  0.24087137029E+02 -0.32516687716E+02  0.40659142061E+02  0.00000000000E+00 0. -1.
         11    1    3    3    0    0  0.64619215599E+01 -0.23666117987E+00  0.97921584155E+01  0.11734513431E+02  0.51100000000E-03 0. -1.
        -11    1    3    3    0    0 -0.14351895371E+02 -0.11293614418E+02  0.13893495437E+02  0.22946717480E+02  0.51100000000E-03 0.  1.
         12    1    3    3    0    0  0.39351434966E+01 -0.12556861431E+02  0.88310338638E+01  0.15847627029E+02  0.00000000000E+00 0. -1.
</event>
<event>
 7    1  0.5972636E-013  0.5052885E+02  0.7816164E-02  0.1300439E+00
        -11   -1    0    0    0    0  0.00000000000E+00  0.00000000000E+00  0.45593999997E+02  0.45594000000E+02  0.51100000000E-03 0. -1.
         11   -1    0    0    0    0 -0.00000000000E+00 -0.00000000000E+00 -0.45593999997E+02  0.45594000000E+02  0.51100000000E-03 0.  1.
    9900012    2    1    2    0    0 -0.16309724572E+02  0.36683180883E+02 -0.64423012527E+01  0.50528854403E+02  0.29999983442E+02 0.  0.
         12    1    1    2    0    0  0.16309724572E+02 -0.36683180883E+02  0.64423012527E+01  0.40659145597E+02  0.00000000000E+00 0. -1.
         11    1    3    3    0    0 -0.54213277902E+01 -0.21986335646E+01 -0.91847630929E+00  0.59218564279E+01  0.51100000000E-03 0. -1.
        -11    1    3    3    0    0 -0.84723443080E+01  0.34762320234E+02  0.18433364280E+01  0.35827327776E+02  0.51100000000E-03 0.  1.
        -12    1    3    3    0    0 -0.24160524737E+01  0.41194942134E+01 -0.73671613714E+01  0.87796701990E+01  0.00000000000E+00 0.  1.
</event>
<event>
 7    1  0.5972636E-013  0.5052886E+02  0.7816164E-02  0.1300439E+00
        -11   -1    0    0    0    0  0.00000000000E+00  0.00000000000E+00  0.45593999997E+02  0.45594000000E+02  0.51100000000E-03 0. -1.
         11   -1    0    0    0    0 -0.00000000000E+00 -0.00000000000E+00 -0.45593999997E+02  0.45594000000E+02  0.51100000000E-03 0.  1.
    9900012    2    1    2    0    0 -0.18191197816E+01  0.40259859857E+02 -0.53851918212E+01  0.50528858304E+02  0.29999995302E+02 0.  0.
         12    1    1    2    0    0  0.18191197816E+01 -0.40259859857E+02  0.53851918212E+01  0.40659141696E+02  0.00000000000E+00 0. -1.
         11    1    3    3    0    0  0.22335200952E+00  0.31160245540E+01 -0.37642681718E+01  0.48917492037E+01  0.51100000000E-03 0. -1.
        -11    1    3    3    0    0  0.98666382183E+00  0.39745539710E+02  0.25797658887E+01  0.39841393357E+02  0.51100000000E-03 0.  1.
        -12    1    3    3    0    0 -0.30291356130E+01 -0.26017044072E+01 -0.42006895380E+01  0.57957157435E+01  0.00000000000E+00 0.  1.
</event>
<event>
 7    1  0.5972636E-013  0.5052886E+02  0.7816164E-02  0.1300439E+00
        -11   -1    0    0    0    0  0.00000000000E+00  0.00000000000E+00  0.45593999997E+02  0.45594000000E+02  0.51100000000E-03 0.  1.
         11   -1    0    0    0    0 -0.00000000000E+00 -0.00000000000E+00 -0.45593999997E+02  0.45594000000E+02  0.51100000000E-03 0. -1.
    9900012    2    1    2    0    0 -0.75944939504E+01  0.37885363757E+02  0.12656576458E+02  0.50528855235E+02  0.29999985973E+02 0.  0.
         12    1    1    2    0    0  0.75944939504E+01 -0.37885363757E+02 -0.12656576458E+02  0.40659144765E+02  0.00000000000E+00 0. -1.
         11    1    3    3    0    0 -0.33189711332E+01  0.31712994953E+01  0.11488751621E+02  0.12371908662E+02  0.51100000000E-03 0. -1.
        -11    1    3    3    0    0 -0.26469722892E+01  0.35844814707E+02  0.20195796060E+01  0.35999109791E+02  0.51100000000E-03 0.  1.
        -12    1    3    3    0    0 -0.16285505281E+01 -0.11307504453E+01 -0.85175476897E+00  0.21578367822E+01  0.00000000000E+00 0.  1.
</event>
<event>
 7    1  0.5972636E-013  0.5052886E+02  0.7816164E-02  0.1300439E+00
        -11   -1    0    0    0    0  0.00000000000E+00  0.00000000000E+00  0.45593999997E+02  0.45594000000E+02  0.51100000000E-03 0. -1.
         11   -1    0    0    0    0 -0.00000000000E+00 -0.00000000000E+00 -0.45593999997E+02  0.45594000000E+02  0.51100000000E-03 0.  1.
    9900012    2    1    2    0    0 -0.12486094858E+02 -0.37442363902E+02 -0.97638535188E+01  0.50528855704E+02  0.29999987398E+02 0.  0.
         12    1    1    2    0    0  0.12486094858E+02  0.37442363902E+02  0.97638535188E+01  0.40659144296E+02  0.00000000000E+00 0. -1.
         11    1    3    3    0    0 -0.15563483525E+02 -0.27073970258E+02 -0.15620409378E+02  0.34917317685E+02  0.51100000000E-03 0.  1.
        -11    1    3    3    0    0  0.25565503575E+01 -0.12251236553E+02  0.51678476315E+01  0.13540140184E+02  0.51100000000E-03 0. -1.
        -12    1    3    3    0    0  0.52083830922E+00  0.18828429092E+01  0.68870822766E+00  0.20713978343E+01  0.00000000000E+00 0.  1.
</event>
<event>
 7    1  0.5972636E-013  0.5052886E+02  0.7816164E-02  0.1300439E+00
        -11   -1    0    0    0    0  0.00000000000E+00  0.00000000000E+00  0.45593999997E+02  0.45594000000E+02  0.51100000000E-03 0.  1.
         11   -1    0    0    0    0 -0.00000000000E+00 -0.00000000000E+00 -0.45593999997E+02  0.45594000000E+02  0.51100000000E-03 0. -1.
    9900012    2    1    2    0    0  0.39393095825E+02 -0.92222639383E+01  0.40372644356E+01  0.50528860130E+02  0.30000000851E+02 0.  0.
         12    1    1    2    0    0 -0.39393095825E+02  0.92222639383E+01 -0.40372644356E+01  0.40659139870E+02  0.00000000000E+00 0. -1.
         11    1    3    3    0    0  0.13907911819E+02  0.62505916773E+01 -0.62132885067E+01  0.16465262276E+02  0.51100000000E-03 0. -1.
        -11    1    3    3    0    0  0.65897983625E+01 -0.74254719862E+01  0.91422120679E+01  0.13496040843E+02  0.51100000000E-03 0.  1.
         12    1    3    3    0    0  0.18895385644E+02 -0.80473836294E+01  0.11083408744E+01  0.20567557011E+02  0.00000000000E+00 0. -1.
</event>
<event>
 7    1  0.5972636E-013  0.5052890E+02  0.7816164E-02  0.1300439E+00
        -11   -1    0    0    0    0  0.00000000000E+00  0.00000000000E+00  0.45593999997E+02  0.45594000000E+02  0.51100000000E-03 0.  1.
         11   -1    0    0    0    0 -0.00000000000E+00 -0.00000000000E+00 -0.45593999997E+02  0.45594000000E+02  0.51100000000E-03 0. -1.
    9900012    2    1    2    0    0 -0.39324448495E+02  0.65663667247E+01 -0.79770345492E+01  0.50528898908E+02  0.30000118721E+02 0.  0.
         12    1    1    2    0    0  0.39324448495E+02 -0.65663667247E+01  0.79770345492E+01  0.40659101092E+02  0.00000000000E+00 0. -1.
         11    1    3    3    0    0 -0.81562497756E+01 -0.94767546409E+01  0.25186375779E+00  0.12505867604E+02  0.51100000000E-03 0. -1.
        -11    1    3    3    0    0 -0.30900676312E+02  0.12455752516E+02 -0.85941021958E+01  0.34407210874E+02  0.51100000000E-03 0.  1.
        -12    1    3    3    0    0 -0.26752240722E+00  0.35873688495E+01  0.36520388881E+00  0.36158204299E+01  0.00000000000E+00 0.  1.
</event>
<event>
 7    1  0.5972636E-013  0.5052887E+02  0.7816164E-02  0.1300439E+00
        -11   -1    0    0    0    0  0.00000000000E+00  0.00000000000E+00  0.45593999997E+02  0.45594000000E+02  0.51100000000E-03 0.  1.
         11   -1    0    0    0    0 -0.00000000000E+00 -0.00000000000E+00 -0.45593999997E+02  0.45594000000E+02  0.51100000000E-03 0. -1.
    9900012    2    1    2    0    0  0.21197218787E+02 -0.24674262682E+02  0.24393111538E+02  0.50528865556E+02  0.30000017345E+02 0.  0.
         12    1    1    2    0    0 -0.21197218787E+02  0.24674262682E+02 -0.24393111538E+02  0.40659134444E+02  0.00000000000E+00 0. -1.
         11    1    3    3    0    0  0.47341782733E+01 -0.19743765847E+02  0.86456247131E+00  0.20321815920E+02  0.51100000000E-03 0. -1.
        -11    1    3    3    0    0  0.49827224207E+01 -0.31947212227E+01  0.13954962988E+02  0.15158323083E+02  0.51100000000E-03 0.  1.
         12    1    3    3    0    0  0.11480318093E+02 -0.17357756119E+01  0.95735860780E+01  0.15048726554E+02  0.00000000000E+00 0. -1.
</event>
<event>
 7    1  0.5972636E-013  0.5052885E+02  0.7816164E-02  0.1300439E+00
        -11   -1    0    0    0    0  0.00000000000E+00  0.00000000000E+00  0.45593999997E+02  0.45594000000E+02  0.51100000000E-03 0.  1.
         11   -1    0    0    0    0 -0.00000000000E+00 -0.00000000000E+00 -0.45593999997E+02  0.45594000000E+02  0.51100000000E-03 0. -1.
    9900012    2    1    2    0    0  0.30187692521E+02  0.96831003652E+01  0.25457946288E+02  0.50528852916E+02  0.29999978923E+02 0.  0.
         12    1    1    2    0    0 -0.30187692521E+02 -0.96831003652E+01 -0.25457946288E+02  0.40659147084E+02  0.00000000000E+00 0. -1.
         11    1    3    3    0    0  0.15041385124E+02  0.46447434475E+01  0.79775309249E+00  0.15762402050E+02  0.51100000000E-03 0. -1.
        -11    1    3    3    0    0  0.18688191741E+02  0.12535248488E+01  0.22148171871E+02  0.29006229548E+02  0.51100000000E-03 0.  1.
        -12    1    3    3    0    0 -0.35418843441E+01  0.37848320689E+01  0.25120213245E+01  0.57602213179E+01  0.00000000000E+00 0.  1.
</event>
<event>
 7    1  0.5972636E-013  0.5052886E+02  0.7816164E-02  0.1300439E+00
        -11   -1    0    0    0    0  0.00000000000E+00  0.00000000000E+00  0.45593999997E+02  0.45594000000E+02  0.51100000000E-03 0. -1.
         11   -1    0    0    0    0 -0.00000000000E+00 -0.00000000000E+00 -0.45593999997E+02  0.45594000000E+02  0.51100000000E-03 0.  1.
    9900012    2    1    2    0    0 -0.12237220090E+02 -0.13214110636E+02 -0.36452753219E+02  0.50528862126E+02  0.30000006917E+02 0.  0.
         12    1    1    2    0    0  0.12237220090E+02  0.13214110636E+02  0.36452753219E+02  0.40659137874E+02  0.00000000000E+00 0. -1.
         11    1    3    3    0    0  0.68161243625E+00  0.16141138897E+01  0.20427974323E+00  0.17639981964E+01  0.51100000000E-03 0. -1.
        -11    1    3    3    0    0 -0.18841440275E+02 -0.51556601462E+01 -0.29407472590E+02  0.35304109500E+02  0.51100000000E-03 0.  1.
        -12    1    3    3    0    0  0.59226077483E+01 -0.96725643794E+01 -0.72495603720E+01  0.13460754429E+02  0.00000000000E+00 0.  1.
</event>
<event>
 7    1  0.5972636E-013  0.5052881E+02  0.7816164E-02  0.1300439E+00
        -11   -1    0    0    0    0  0.00000000000E+00  0.00000000000E+00  0.45593999997E+02  0.45594000000E+02  0.51100000000E-03 0.  1.
         11   -1    0    0    0    0 -0.00000000000E+00 -0.00000000000E+00 -0.45593999997E+02  0.45594000000E+02  0.51100000000E-03 0. -1.
    9900012    2    1    2    0    0  0.13891136997E+02  0.17408117823E+02  0.34017104267E+02  0.50528811175E+02  0.29999852047E+02 0.  0.
         12    1    1    2    0    0 -0.13891136997E+02 -0.17408117823E+02 -0.34017104267E+02  0.40659188825E+02  0.00000000000E+00 0. -1.
         11    1    3    3    0    0  0.75593859332E+01  0.83442197098E+01  0.49290634542E+01  0.12290890328E+02  0.51100000000E-03 0. -1.
        -11    1    3    3    0    0  0.84107056435E+01 -0.48957921670E+01  0.17298197715E+02  0.19847830985E+02  0.51100000000E-03 0.  1.
        -12    1    3    3    0    0 -0.20789545800E+01  0.13959690280E+02  0.11789843099E+02  0.18390089862E+02  0.00000000000E+00 0.  1.
</event>
<event>
 7    1  0.5972636E-013  0.5052886E+02  0.7816164E-02  0.1300439E+00
        -11   -1    0    0    0    0  0.00000000000E+00  0.00000000000E+00  0.45593999997E+02  0.45594000000E+02  0.51100000000E-03 0.  1.
         11   -1    0    0    0    0 -0.00000000000E+00 -0.00000000000E+00 -0.45593999997E+02  0.45594000000E+02  0.51100000000E-03 0. -1.
    9900012    2    1    2    0    0  0.17581107364E+02  0.23943344428E+02  0.27763048269E+02  0.50528856776E+02  0.29999990656E+02 0.  0.
         12    1    1    2    0    0 -0.17581107364E+02 -0.23943344428E+02 -0.27763048269E+02  0.40659143224E+02  0.00000000000E+00 0. -1.
         11    1    3    3    0    0 -0.10066451630E-01  0.13413652980E+02  0.26941275566E+01  0.13681539064E+02  0.51100000000E-03 0. -1.
        -11    1    3    3    0    0  0.19870589614E+02  0.11306416492E+02  0.17176204774E+02  0.28595408656E+02  0.51100000000E-03 0.  1.
        -12    1    3    3    0    0 -0.22794157990E+01 -0.77672504452E+00  0.78927159383E+01  0.82519090556E+01  0.00000000000E+00 0.  1.
</event>
<event>
 7    1  0.5972636E-013  0.5052887E+02  0.7816164E-02  0.1300439E+00
        -11   -1    0    0    0    0  0.00000000000E+00  0.00000000000E+00  0.45593999997E+02  0.45594000000E+02  0.51100000000E-03 0. -1.
         11   -1    0    0    0    0 -0.00000000000E+00 -0.00000000000E+00 -0.45593999997E+02  0.45594000000E+02  0.51100000000E-03 0.  1.
    9900012    2    1    2    0    0  0.21859833737E+02  0.34062608693E+02  0.38796208208E+01  0.50528866958E+02  0.30000021606E+02 0.  0.
         12    1    1    2    0    0 -0.21859833737E+02 -0.34062608693E+02 -0.38796208208E+01  0.40659133042E+02  0.00000000000E+00 0. -1.
         11    1    3    3    0    0  0.19526723676E+02  0.24211703879E+02  0.13783146913E+02  0.34021679578E+02  0.51100000000E-03 0. -1.
        -11    1    3    3    0    0  0.33977401781E+01  0.59331009225E+01 -0.10369490949E+02  0.12420654881E+02  0.51100000000E-03 0.  1.
        -12    1    3    3    0    0 -0.10646301164E+01  0.39178038919E+01  0.46596485645E+00  0.40865324993E+01  0.00000000000E+00 0.  1.
</event>
<event>
 7    1  0.5972636E-013  0.5052888E+02  0.7816164E-02  0.1300439E+00
        -11   -1    0    0    0    0  0.00000000000E+00  0.00000000000E+00  0.45593999997E+02  0.45594000000E+02  0.51100000000E-03 0. -1.
         11   -1    0    0    0    0 -0.00000000000E+00 -0.00000000000E+00 -0.45593999997E+02  0.45594000000E+02  0.51100000000E-03 0.  1.
    9900012    2    1    2    0    0 -0.81305493251E+01  0.32680813244E+02 -0.22782071630E+02  0.50528878337E+02  0.30000056194E+02 0.  0.
         12    1    1    2    0    0  0.81305493251E+01 -0.32680813244E+02  0.22782071630E+02  0.40659121663E+02  0.00000000000E+00 0. -1.
         11    1    3    3    0    0 -0.17984333883E+01  0.14863525801E+01 -0.57069037938E+01  0.61654162729E+01  0.51100000000E-03 0. -1.
        -11    1    3    3    0    0 -0.77549054306E+01  0.14274534510E+02  0.45486872346E+01  0.16869838456E+02  0.51100000000E-03 0.  1.
        -12    1    3    3    0    0  0.14227894938E+01  0.16919926154E+02 -0.21623855071E+02  0.27493623608E+02  0.00000000000E+00 0.  1.
</event>
<event>
 7    1  0.5972636E-013  0.5052887E+02  0.7816164E-02  0.1300439E+00
        -11   -1    0    0    0    0  0.00000000000E+00  0.00000000000E+00  0.45593999997E+02  0.45594000000E+02  0.51100000000E-03 0. -1.
         11   -1    0    0    0    0 -0.00000000000E+00 -0.00000000000E+00 -0.45593999997E+02  0.45594000000E+02  0.51100000000E-03 0.  1.
    9900012    2    1    2    0    0  0.82504222449E+01  0.19368021660E+02 -0.34784698523E+02  0.50528868411E+02  0.30000026022E+02 0.  0.
         12    1    1    2    0    0 -0.82504222449E+01 -0.19368021660E+02  0.34784698523E+02  0.40659131589E+02  0.00000000000E+00 0. -1.
         11    1    3    3    0    0  0.24296329841E+00 -0.34195450522E+01  0.31967825417E+01  0.46874020958E+01  0.51100000000E-03 0. -1.
        -11    1    3    3    0    0  0.89918554987E+01  0.16455417831E+02 -0.31920641246E+02  0.37021096406E+02  0.51100000000E-03 0.  1.
         12    1    3    3    0    0 -0.98439655219E+00  0.63321488809E+01 -0.60608398187E+01  0.88203699089E+01  0.00000000000E+00 0. -1.
</event>
<event>
 7    1  0.5972636E-013  0.5052887E+02  0.7816164E-02  0.1300439E+00
        -11   -1    0    0    0    0  0.00000000000E+00  0.00000000000E+00  0.45593999997E+02  0.45594000000E+02  0.51100000000E-03 0. -1.
         11   -1    0    0    0    0 -0.00000000000E+00 -0.00000000000E+00 -0.45593999997E+02  0.45594000000E+02  0.51100000000E-03 0.  1.
    9900012    2    1    2    0    0 -0.39361753718E+02 -0.10069408586E+02  0.15570076979E+01  0.50528869193E+02  0.30000028400E+02 0.  0.
         12    1    1    2    0    0  0.39361753718E+02  0.10069408586E+02 -0.15570076979E+01  0.40659130807E+02  0.00000000000E+00 0. -1.
         11    1    3    3    0    0  0.51655277775E+00 -0.49777585023E+01 -0.20134997810E+01  0.53943570617E+01  0.51100000000E-03 0. -1.
        -11    1    3    3    0    0 -0.34469916004E+02  0.34634367038E+01  0.46570039283E+01  0.34955088170E+02  0.51100000000E-03 0.  1.
        -12    1    3    3    0    0 -0.54083904912E+01 -0.85550867877E+01 -0.10864964494E+01  0.10179423961E+02  0.00000000000E+00 0.  1.
</event>
<event>
 7    1  0.5972636E-013  0.5052886E+02  0.7816164E-02  0.1300439E+00
        -11   -1    0    0    0    0  0.00000000000E+00  0.00000000000E+00  0.45593999997E+02  0.45594000000E+02  0.51100000000E-03 0.  1.
         11   -1    0    0    0    0 -0.00000000000E+00 -0.00000000000E+00 -0.45593999997E+02  0.45594000000E+02  0.51100000000E-03 0. -1.
    9900012    2    1    2    0    0 -0.46533466409E+01 -0.18783803078E+02  0.35758650544E+02  0.50528856112E+02  0.29999988637E+02 0.  0.
         12    1    1    2    0    0  0.46533466409E+01  0.18783803078E+02 -0.35758650544E+02  0.40659143888E+02  0.00000000000E+00 0. -1.
         11    1    3    3    0    0 -0.14043065998E+02 -0.73666142440E+00  0.10449471304E+02  0.17519755234E+02  0.51100000000E-03 0. -1.
        -11    1    3    3    0    0  0.15968417749E+01 -0.71823978055E+01  0.12430329217E+02  0.14444716217E+02  0.51100000000E-03 0.  1.
         12    1    3    3    0    0  0.77928775825E+01 -0.10864743848E+02  0.12878850023E+02  0.18564384660E+02  0.00000000000E+00 0. -1.
</event>
<event>
 7    1  0.5972636E-013  0.5052886E+02  0.7816164E-02  0.1300439E+00
        -11   -1    0    0    0    0  0.00000000000E+00  0.00000000000E+00  0.45593999997E+02  0.45594000000E+02  0.51100000000E-03 0. -1.
         11   -1    0    0    0    0 -0.00000000000E+00 -0.00000000000E+00 -0.45593999997E+02  0.45594000000E+02  0.51100000000E-03 0.  1.
    9900012    2    1    2    0    0  0.12641499005E+02  0.25779557793E+02 -0.28788411875E+02  0.50528858895E+02  0.29999997098E+02 0.  0.
         12    1    1    2    0    0 -0.12641499005E+02 -0.25779557793E+02  0.28788411875E+02  0.40659141105E+02  0.00000000000E+00 0. -1.
         11    1    3    3    0    0 -0.11609156795E+01 -0.68353092080E+00  0.34990784862E+01  0.37494653283E+01  0.51100000000E-03 0. -1.
        -11    1    3    3    0    0  0.72765228871E+01  0.26268136896E+02 -0.27147071919E+02  0.38469810441E+02  0.51100000000E-03 0.  1.
         12    1    3    3    0    0  0.65258917975E+01  0.19495181708E+00 -0.51404184420E+01  0.83095831257E+01  0.00000000000E+00 0. -1.
</event>
<event>
 7    1  0.5972636E-013  0.5052886E+02  0.7816164E-02  0.1300439E+00
        -11   -1    0    0    0    0  0.00000000000E+00  0.00000000000E+00  0.45593999997E+02  0.45594000000E+02  0.51100000000E-03 0.  1.
         11   -1    0    0    0    0 -0.00000000000E+00 -0.00000000000E+00 -0.45593999997E+02  0.45594000000E+02  0.51100000000E-03 0. -1.
    9900012    2    1    2    0    0  0.14693307162E+02  0.34862525628E+02  0.14895535751E+02  0.50528856455E+02  0.29999989681E+02 0.  0.
         12    1    1    2    0    0 -0.14693307162E+02 -0.34862525628E+02 -0.14895535751E+02  0.40659143545E+02  0.00000000000E+00 0. -1.
         11    1    3    3    0    0  0.17241475018E+02  0.16758562786E+02  0.10552611625E+02  0.26257865485E+02  0.51100000000E-03 0.  1.
        -11    1    3    3    0    0  0.25758459230E+00  0.12895051090E+02 -0.44751765277E+01  0.13651955817E+02  0.51100000000E-03 0. -1.
         12    1    3    3    0    0 -0.28057524478E+01  0.52089117519E+01  0.88181006540E+01  0.10619035153E+02  0.00000000000E+00 0. -1.
</event>
<event>
 7    1  0.5972636E-013  0.5052886E+02  0.7816164E-02  0.1300439E+00
        -11   -1    0    0    0    0  0.00000000000E+00  0.00000000000E+00  0.45593999997E+02  0.45594000000E+02  0.51100000000E-03 0. -1.
         11   -1    0    0    0    0 -0.00000000000E+00 -0.00000000000E+00 -0.45593999997E+02  0.45594000000E+02  0.51100000000E-03 0.  1.
    9900012    2    1    2    0    0  0.26914260808E+01  0.12624682025E+02 -0.38555659951E+02  0.50528864681E+02  0.30000014685E+02 0.  0.
         12    1    1    2    0    0 -0.26914260808E+01 -0.12624682025E+02  0.38555659951E+02  0.40659135319E+02  0.00000000000E+00 0. -1.
         11    1    3    3    0    0 -0.53524257963E+01  0.11612256463E+02 -0.32295737232E+02  0.34734818349E+02  0.51100000000E-03 0. -1.
        -11    1    3    3    0    0  0.65174926151E+01  0.42220653397E+01 -0.85623828262E+01  0.11559322889E+02  0.51100000000E-03 0.  1.
         12    1    3    3    0    0  0.15263592620E+01 -0.32096397785E+01  0.23024601069E+01  0.42347234441E+01  0.00000000000E+00 0. -1.
</event>
<event>
 7    1  0.5972636E-013  0.5052886E+02  0.7816164E-02  0.1300439E+00
        -11   -1    0    0    0    0  0.00000000000E+00  0.00000000000E+00  0.45593999997E+02  0.45594000000E+02  0.51100000000E-03 0.  1.
         11   -1    0    0    0    0 -0.00000000000E+00 -0.00000000000E+00 -0.45593999997E+02  0.45594000000E+02  0.51100000000E-03 0. -1.
    9900012    2    1    2    0    0  0.20850636193E+02 -0.18771823571E+02 -0.29428479367E+02  0.50528858498E+02  0.29999995889E+02 0.  0.
         12    1    1    2    0    0 -0.20850636193E+02  0.18771823571E+02  0.29428479367E+02  0.40659141502E+02  0.00000000000E+00 0. -1.
         11    1    3    3    0    0  0.12100670642E+01 -0.40881420211E+01 -0.23116301057E+02  0.23506180939E+02  0.51100000000E-03 0. -1.
        -11    1    3    3    0    0  0.61163774648E+01 -0.67224361957E+01 -0.67534497404E+01  0.11322998956E+02  0.51100000000E-03 0.  1.
         12    1    3    3    0    0  0.13524191664E+02 -0.79612453544E+01  0.44127143050E+00  0.15699678603E+02  0.00000000000E+00 0. -1.
</event>
<event>
 7    1  0.5972636E-013  0.5052886E+02  0.7816164E-02  0.1300439E+00
        -11   -1    0    0    0    0  0.00000000000E+00  0.00000000000E+00  0.45593999997E+02  0.45594000000E+02  0.51100000000E-03 0.  1.
         11   -1    0    0    0    0 -0.00000000000E+00 -0.00000000000E+00 -0.45593999997E+02  0.45594000000E+02  0.51100000000E-03 0. -1.
    9900012    2    1    2    0    0 -0.18662464443E+02 -0.22644563644E+02  0.28144310739E+02  0.50528855043E+02  0.29999985387E+02 0.  0.
         12    1    1    2    0    0  0.18662464443E+02  0.22644563644E+02 -0.28144310739E+02  0.40659144957E+02  0.00000000000E+00 0. -1.
         11    1    3    3    0    0 -0.17482565225E+02 -0.31169453145E+01  0.35508941708E+01  0.18109784223E+02  0.51100000000E-03 0. -1.
        -11    1    3    3    0    0 -0.20626125337E+01 -0.13171174494E+02  0.21492925582E+02  0.25291897089E+02  0.51100000000E-03 0.  1.
         12    1    3    3    0    0  0.88271331627E+00 -0.63564438351E+01  0.31004909867E+01  0.71271737306E+01  0.00000000000E+00 0. -1.
</event>
<event>
 7    1  0.5972636E-013  0.5052886E+02  0.7816164E-02  0.1300439E+00
        -11   -1    0    0    0    0  0.00000000000E+00  0.00000000000E+00  0.45593999997E+02  0.45594000000E+02  0.51100000000E-03 0. -1.
         11   -1    0    0    0    0 -0.00000000000E+00 -0.00000000000E+00 -0.45593999997E+02  0.45594000000E+02  0.51100000000E-03 0.  1.
    9900012    2    1    2    0    0  0.27167401098E+02  0.29871512367E+02  0.47739813604E+01  0.50528857959E+02  0.29999994252E+02 0.  0.
         12    1    1    2    0    0 -0.27167401098E+02 -0.29871512367E+02 -0.47739813604E+01  0.40659142041E+02  0.00000000000E+00 0. -1.
         11    1    3    3    0    0 -0.17878378035E+01 -0.67214783794E+00 -0.45247999681E+01  0.49114113797E+01  0.51100000000E-03 0. -1.
        -11    1    3    3    0    0  0.25378234656E+02  0.24380609158E+02  0.13087884406E+02  0.37546792348E+02  0.51100000000E-03 0.  1.
        -12    1    3    3    0    0  0.35770042457E+01  0.61630510466E+01 -0.37891030779E+01  0.80706542307E+01  0.00000000000E+00 0.  1.
</event>
<event>
 7    1  0.5972636E-013  0.5052886E+02  0.7816164E-02  0.1300439E+00
        -11   -1    0    0    0    0  0.00000000000E+00  0.00000000000E+00  0.45593999997E+02  0.45594000000E+02  0.51100000000E-03 0.  1.
         11   -1    0    0    0    0 -0.00000000000E+00 -0.00000000000E+00 -0.45593999997E+02  0.45594000000E+02  0.51100000000E-03 0. -1.
    9900012    2    1    2    0    0  0.27309853932E+02  0.25366944927E+02  0.16243642689E+02  0.50528856570E+02  0.29999990029E+02 0.  0.
         12    1    1    2    0    0 -0.27309853932E+02 -0.25366944927E+02 -0.16243642689E+02  0.40659143430E+02  0.00000000000E+00 0. -1.
         11    1    3    3    0    0  0.22014385254E+01  0.31378740574E+01 -0.61236522439E+01  0.72243824820E+01  0.51100000000E-03 0. -1.
        -11    1    3    3    0    0  0.17049621270E+02  0.23148906465E+02  0.19326510893E+02  0.34642105587E+02  0.51100000000E-03 0.  1.
        -12    1    3    3    0    0  0.80587941366E+01 -0.91983559563E+00  0.30407840399E+01  0.86623685004E+01  0.00000000000E+00 0.  1.
</event>
<event>
 7    1  0.5972636E-013  0.5052887E+02  0.7816164E-02  0.1300439E+00
        -11   -1    0    0    0    0  0.00000000000E+00  0.00000000000E+00  0.45593999997E+02  0.45594000000E+02  0.51100000000E-03 0.  1.
         11   -1    0    0    0    0 -0.00000000000E+00 -0.00000000000E+00 -0.45593999997E+02  0.45594000000E+02  0.51100000000E-03 0. -1.
    9900012    2    1    2    0    0  0.13064471705E+02 -0.28368531637E+02  0.26032886086E+02  0.50528866141E+02  0.30000019123E+02 0.  0.
         12    1    1    2    0    0 -0.13064471705E+02  0.28368531637E+02 -0.26032886086E+02  0.40659133859E+02  0.00000000000E+00 0. -1.
         11    1    3    3    0    0 -0.21684848058E+01 -0.59473008634E+01  0.44561858873E+01  0.77414667110E+01  0.51100000000E-03 0. -1.
        -11    1    3    3    0    0  0.14088064723E+02 -0.77037393543E+01  0.22897637267E+02  0.27966461349E+02  0.51100000000E-03 0.  1.
        -12    1    3    3    0    0  0.11448917874E+01 -0.14717491419E+02 -0.13209370685E+01  0.14820938082E+02  0.00000000000E+00 0.  1.
</event>
<event>
 7    1  0.5972636E-013  0.5052886E+02  0.7816164E-02  0.1300439E+00
        -11   -1    0    0    0    0  0.00000000000E+00  0.00000000000E+00  0.45593999997E+02  0.45594000000E+02  0.51100000000E-03 0.  1.
         11   -1    0    0    0    0 -0.00000000000E+00 -0.00000000000E+00 -0.45593999997E+02  0.45594000000E+02  0.51100000000E-03 0. -1.
    9900012    2    1    2    0    0  0.35135787970E+02  0.20442861614E+02  0.85523440341E+00  0.50528860645E+02  0.30000002416E+02 0.  0.
         12    1    1    2    0    0 -0.35135787970E+02 -0.20442861614E+02 -0.85523440341E+00  0.40659139355E+02  0.00000000000E+00 0. -1.
         11    1    3    3    0    0  0.28776003626E+01 -0.13733175109E+01 -0.21790444149E+01  0.38619709549E+01  0.51100000000E-03 0. -1.
        -11    1    3    3    0    0  0.19532389951E+02  0.62049196285E+01  0.12923871568E+02  0.24228944290E+02  0.51100000000E-03 0.  1.
        -12    1    3    3    0    0  0.12725797656E+02  0.15611259496E+02 -0.98895927500E+01  0.22437945400E+02  0.00000000000E+00 0.  1.
</event>
<event>
 7    1  0.5972636E-013  0.5052887E+02  0.7816164E-02  0.1300439E+00
        -11   -1    0    0    0    0  0.00000000000E+00  0.00000000000E+00  0.45593999997E+02  0.45594000000E+02  0.51100000000E-03 0.  1.
         11   -1    0    0    0    0 -0.00000000000E+00 -0.00000000000E+00 -0.45593999997E+02  0.45594000000E+02  0.51100000000E-03 0. -1.
    9900012    2    1    2    0    0  0.76217276970E+01 -0.39901533470E+02  0.17150596740E+01  0.50528873890E+02  0.30000042677E+02 0.  0.
         12    1    1    2    0    0 -0.76217276970E+01  0.39901533470E+02 -0.17150596740E+01  0.40659126110E+02  0.00000000000E+00 0. -1.
         11    1    3    3    0    0 -0.82535734739E+01 -0.21715347052E+02 -0.23346270890E+01  0.23347981852E+02  0.51100000000E-03 0. -1.
        -11    1    3    3    0    0  0.15827976254E+02 -0.18793019795E+02  0.15621466999E+01  0.24619966042E+02  0.51100000000E-03 0.  1.
        -12    1    3    3    0    0  0.47324916795E-01  0.60683337692E+00  0.24875400631E+01  0.25609259967E+01  0.00000000000E+00 0.  1.
</event>
<event>
 7    1  0.5972636E-013  0.5052886E+02  0.7816164E-02  0.1300439E+00
        -11   -1    0    0    0    0  0.00000000000E+00  0.00000000000E+00  0.45593999997E+02  0.45594000000E+02  0.51100000000E-03 0.  1.
         11   -1    0    0    0    0 -0.00000000000E+00 -0.00000000000E+00 -0.45593999997E+02  0.45594000000E+02  0.51100000000E-03 0. -1.
    9900012    2    1    2    0    0 -0.18655829473E+02 -0.14001354468E+00  0.36126250236E+02  0.50528861627E+02  0.30000005402E+02 0.  0.
         12    1    1    2    0    0  0.18655829473E+02  0.14001354468E+00 -0.36126250236E+02  0.40659138373E+02  0.00000000000E+00 0. -1.
         11    1    3    3    0    0 -0.19085425145E+02 -0.53558184078E+00  0.10140283817E+02  0.21618641424E+02  0.51100000000E-03 0. -1.
        -11    1    3    3    0    0  0.24630540290E+01  0.60196743135E+01  0.15984788434E+02  0.17257362936E+02  0.51100000000E-03 0.  1.
         12    1    3    3    0    0 -0.20334583572E+01 -0.56241060174E+01  0.10001177985E+02  0.11652857267E+02  0.00000000000E+00 0. -1.
</event>
<event>
 7    1  0.5972636E-013  0.5052887E+02  0.7816164E-02  0.1300439E+00
        -11   -1    0    0    0    0  0.00000000000E+00  0.00000000000E+00  0.45593999997E+02  0.45594000000E+02  0.51100000000E-03 0. -1.
         11   -1    0    0    0    0 -0.00000000000E+00 -0.00000000000E+00 -0.45593999997E+02  0.45594000000E+02  0.51100000000E-03 0.  1.
    9900012    2    1    2    0    0 -0.10172623716E+02 -0.34099681435E+02 -0.19669629665E+02  0.50528869680E+02  0.30000029879E+02 0.  0.
         12    1    1    2    0    0  0.10172623716E+02  0.34099681435E+02  0.19669629665E+02  0.40659130320E+02  0.00000000000E+00 0. -1.
         11    1    3    3    0    0 -0.63812474383E+01 -0.23570000491E+01  0.28921297386E+01  0.73918998090E+01  0.51100000000E-03 0. -1.
        -11    1    3    3    0    0 -0.39171427241E+01 -0.32218796869E+02 -0.24799190124E+02  0.40845987684E+02  0.51100000000E-03 0.  1.
        -12    1    3    3    0    0  0.12576644620E+00  0.47611548351E+00  0.22374307205E+01  0.22909821871E+01  0.00000000000E+00 0.  1.
</event>
<event>
 7    1  0.5972636E-013  0.5052886E+02  0.7816164E-02  0.1300439E+00
        -11   -1    0    0    0    0  0.00000000000E+00  0.00000000000E+00  0.45593999997E+02  0.45594000000E+02  0.51100000000E-03 0.  1.
         11   -1    0    0    0    0 -0.00000000000E+00 -0.00000000000E+00 -0.45593999997E+02  0.45594000000E+02  0.51100000000E-03 0. -1.
    9900012    2    1    2    0    0 -0.11216530961E+02  0.16475055425E+02  0.35439066505E+02  0.50528862616E+02  0.30000008409E+02 0.  0.
         12    1    1    2    0    0  0.11216530961E+02 -0.16475055425E+02 -0.35439066505E+02  0.40659137384E+02  0.00000000000E+00 0. -1.
         11    1    3    3    0    0 -0.51375473400E+01 -0.60668632537E+00  0.28069392319E+02  0.28542131076E+02  0.51100000000E-03 0. -1.
        -11    1    3    3    0    0 -0.13700876583E+01  0.13799046083E+02  0.83156240302E+01  0.16169119217E+02  0.51100000000E-03 0.  1.
         12    1    3    3    0    0 -0.47088959627E+01  0.32826956676E+01 -0.94594984417E+00  0.58176123230E+01  0.00000000000E+00 0. -1.
</event>
<event>
 7    1  0.5972636E-013  0.5052885E+02  0.7816164E-02  0.1300439E+00
        -11   -1    0    0    0    0  0.00000000000E+00  0.00000000000E+00  0.45593999997E+02  0.45594000000E+02  0.51100000000E-03 0.  1.
         11   -1    0    0    0    0 -0.00000000000E+00 -0.00000000000E+00 -0.45593999997E+02  0.45594000000E+02  0.51100000000E-03 0. -1.
    9900012    2    1    2    0    0 -0.10072791920E+01 -0.31454630527E+02  0.25744084855E+02  0.50528852223E+02  0.29999976816E+02 0.  0.
         12    1    1    2    0    0  0.10072791920E+01  0.31454630527E+02 -0.25744084855E+02  0.40659147777E+02  0.00000000000E+00 0. -1.
         11    1    3    3    0    0  0.13945268800E+02 -0.12716985577E+02  0.12627369543E+02  0.22707767524E+02  0.51100000000E-03 0. -1.
        -11    1    3    3    0    0 -0.50802519647E+01 -0.28399348169E+01  0.29951665277E+01  0.65456254536E+01  0.51100000000E-03 0.  1.
         12    1    3    3    0    0 -0.98722960269E+01 -0.15897710133E+02  0.10121548784E+02  0.21275459245E+02  0.00000000000E+00 0. -1.
</event>
<event>
 7    1  0.5972636E-013  0.5052884E+02  0.7816164E-02  0.1300439E+00
        -11   -1    0    0    0    0  0.00000000000E+00  0.00000000000E+00  0.45593999997E+02  0.45594000000E+02  0.51100000000E-03 0. -1.
         11   -1    0    0    0    0 -0.00000000000E+00 -0.00000000000E+00 -0.45593999997E+02  0.45594000000E+02  0.51100000000E-03 0.  1.
    9900012    2    1    2    0    0 -0.34313210381E+02  0.18977029355E+02 -0.10753744768E+02  0.50528842651E+02  0.29999947721E+02 0.  0.
         12    1    1    2    0    0  0.34313210381E+02 -0.18977029355E+02  0.10753744768E+02  0.40659157349E+02  0.00000000000E+00 0. -1.
         11    1    3    3    0    0  0.84503497341E+00  0.15493015052E+01  0.10764686658E+01  0.20671730237E+01  0.51100000000E-03 0. -1.
        -11    1    3    3    0    0 -0.36814897463E+02  0.21450695712E+02 -0.11281081612E+02  0.44076431620E+02  0.51100000000E-03 0.  1.
        -12    1    3    3    0    0  0.16566521082E+01 -0.40229678616E+01 -0.54913182169E+00  0.43852380073E+01  0.00000000000E+00 0.  1.
</event>
<event>
 7    1  0.5972636E-013  0.5052886E+02  0.7816164E-02  0.1300439E+00
        -11   -1    0    0    0    0  0.00000000000E+00  0.00000000000E+00  0.45593999997E+02  0.45594000000E+02  0.51100000000E-03 0.  1.
         11   -1    0    0    0    0 -0.00000000000E+00 -0.00000000000E+00 -0.45593999997E+02  0.45594000000E+02  0.51100000000E-03 0. -1.
    9900012    2    1    2    0    0 -0.74055167773E+01 -0.35573928688E+02  0.18243338906E+02  0.50528862091E+02  0.30000006812E+02 0.  0.
         12    1    1    2    0    0  0.74055167773E+01  0.35573928688E+02 -0.18243338906E+02  0.40659137909E+02  0.00000000000E+00 0. -1.
         11    1    3    3    0    0 -0.57974409286E+00 -0.29433381176E+02  0.10214848563E+02  0.31160923640E+02  0.51100000000E-03 0.  1.
        -11    1    3    3    0    0 -0.12204859170E+01  0.49077757597E+01  0.11081449772E+01  0.51772419619E+01  0.51100000000E-03 0. -1.
        -12    1    3    3    0    0 -0.56052867674E+01 -0.11048323272E+02  0.69203453655E+01  0.14190696489E+02  0.00000000000E+00 0.  1.
</event>
<event>
 7    1  0.5972636E-013  0.5052885E+02  0.7816164E-02  0.1300439E+00
        -11   -1    0    0    0    0  0.00000000000E+00  0.00000000000E+00  0.45593999997E+02  0.45594000000E+02  0.51100000000E-03 0.  1.
         11   -1    0    0    0    0 -0.00000000000E+00 -0.00000000000E+00 -0.45593999997E+02  0.45594000000E+02  0.51100000000E-03 0. -1.
    9900012    2    1    2    0    0  0.28814179583E+02 -0.28437758334E+02 -0.37687119195E+01  0.50528853014E+02  0.29999979220E+02 0.  0.
         12    1    1    2    0    0 -0.28814179583E+02  0.28437758334E+02  0.37687119195E+01  0.40659146986E+02  0.00000000000E+00 0. -1.
         11    1    3    3    0    0  0.17742246254E+02 -0.76571301786E+01  0.98148058412E+01  0.21673702007E+02  0.51100000000E-03 0.  1.
        -11    1    3    3    0    0  0.53213556151E+01 -0.17454572574E+02 -0.12513992900E+02  0.22126430980E+02  0.51100000000E-03 0. -1.
         12    1    3    3    0    0  0.57505777139E+01 -0.33260555815E+01 -0.10695248603E+01  0.67287200270E+01  0.00000000000E+00 0. -1.
</event>
<event>
 7    1  0.5972636E-013  0.5052886E+02  0.7816164E-02  0.1300439E+00
        -11   -1    0    0    0    0  0.00000000000E+00  0.00000000000E+00  0.45593999997E+02  0.45594000000E+02  0.51100000000E-03 0.  1.
         11   -1    0    0    0    0 -0.00000000000E+00 -0.00000000000E+00 -0.45593999997E+02  0.45594000000E+02  0.51100000000E-03 0. -1.
    9900012    2    1    2    0    0 -0.29159007109E+02 -0.74100755961E+00  0.28326117121E+02  0.50528859590E+02  0.29999999209E+02 0.  0.
         12    1    1    2    0    0  0.29159007109E+02  0.74100755961E+00 -0.28326117121E+02  0.40659140410E+02  0.00000000000E+00 0. -1.
         11    1    3    3    0    0 -0.15552270072E+01  0.29349763780E+01  0.14056096361E+02  0.14443222029E+02  0.51100000000E-03 0. -1.
        -11    1    3    3    0    0 -0.79199156779E+01 -0.67813892178E+01 -0.16801484238E+01  0.10561022822E+02  0.51100000000E-03 0.  1.
        -12    1    3    3    0    0 -0.19683864423E+02  0.31054052802E+01  0.15950169183E+02  0.25524614739E+02  0.00000000000E+00 0.  1.
</event>
<event>
 7    1  0.5972636E-013  0.5052885E+02  0.7816164E-02  0.1300439E+00
        -11   -1    0    0    0    0  0.00000000000E+00  0.00000000000E+00  0.45593999997E+02  0.45594000000E+02  0.51100000000E-03 0. -1.
         11   -1    0    0    0    0 -0.00000000000E+00 -0.00000000000E+00 -0.45593999997E+02  0.45594000000E+02  0.51100000000E-03 0.  1.
    9900012    2    1    2    0    0  0.52563545430E+01  0.24269779528E+02 -0.32194947766E+02  0.50528854374E+02  0.29999983354E+02 0.  0.
         12    1    1    2    0    0 -0.52563545430E+01 -0.24269779528E+02  0.32194947766E+02  0.40659145626E+02  0.00000000000E+00 0. -1.
         11    1    3    3    0    0  0.47755438982E+01  0.18469168082E+01  0.14300853573E+01  0.53162078223E+01  0.51100000000E-03 0. -1.
        -11    1    3    3    0    0  0.64164739247E+01  0.15245125962E+02 -0.31620505610E+02  0.35685310403E+02  0.51100000000E-03 0.  1.
        -12    1    3    3    0    0 -0.59356632799E+01  0.71777367579E+01 -0.20045275126E+01  0.95273361485E+01  0.00000000000E+00 0.  1.
</event>
<event>
 7    1  0.5972636E-013  0.5052883E+02  0.7816164E-02  0.1300439E+00
        -11   -1    0    0    0    0  0.00000000000E+00  0.00000000000E+00  0.45593999997E+02  0.45594000000E+02  0.51100000000E-03 0. -1.
         11   -1    0    0    0    0 -0.00000000000E+00 -0.00000000000E+00 -0.45593999997E+02  0.45594000000E+02  0.51100000000E-03 0.  1.
    9900012    2    1    2    0    0 -0.15597901539E+02 -0.17236836612E+02 -0.33358126988E+02  0.50528834920E+02  0.29999924223E+02 0.  0.
         12    1    1    2    0    0  0.15597901539E+02  0.17236836612E+02  0.33358126988E+02  0.40659165080E+02  0.00000000000E+00 0. -1.
         11    1    3    3    0    0 -0.43922446245E+01  0.20178140229E+01 -0.16171476722E+02  0.16878389908E+02  0.51100000000E-03 0.  1.
        -11    1    3    3    0    0 -0.96111517578E+01 -0.68179458508E+01  0.70246369013E+00  0.11804748165E+02  0.51100000000E-03 0. -1.
         12    1    3    3    0    0 -0.15945051571E+01 -0.12436704784E+02 -0.17889113957E+02  0.21845696847E+02  0.00000000000E+00 0. -1.
</event>
<event>
 7    1  0.5972636E-013  0.5052886E+02  0.7816164E-02  0.1300439E+00
        -11   -1    0    0    0    0  0.00000000000E+00  0.00000000000E+00  0.45593999997E+02  0.45594000000E+02  0.51100000000E-03 0. -1.
         11   -1    0    0    0    0 -0.00000000000E+00 -0.00000000000E+00 -0.45593999997E+02  0.45594000000E+02  0.51100000000E-03 0.  1.
    9900012    2    1    2    0    0  0.25036474362E+02 -0.24117925951E+02  0.21087119348E+02  0.50528855849E+02  0.29999987840E+02 0.  0.
         12    1    1    2    0    0 -0.25036474362E+02  0.24117925951E+02 -0.21087119348E+02  0.40659144151E+02  0.00000000000E+00 0. -1.
         11    1    3    3    0    0  0.71605692227E+01 -0.71701725383E+01  0.21176265129E+02  0.23475930884E+02  0.51100000000E-03 0. -1.
        -11    1    3    3    0    0  0.16045245179E+02 -0.80299401132E+01  0.22325238787E+00  0.17943792046E+02  0.51100000000E-03 0.  1.
        -12    1    3    3    0    0  0.18306599603E+01 -0.89178132993E+01 -0.31239816862E+00  0.91091329196E+01  0.00000000000E+00 0.  1.
</event>
<event>
 7    1  0.5972636E-013  0.5052886E+02  0.7816164E-02  0.1300439E+00
        -11   -1    0    0    0    0  0.00000000000E+00  0.00000000000E+00  0.45593999997E+02  0.45594000000E+02  0.51100000000E-03 0.  1.
         11   -1    0    0    0    0 -0.00000000000E+00 -0.00000000000E+00 -0.45593999997E+02  0.45594000000E+02  0.51100000000E-03 0. -1.
    9900012    2    1    2    0    0  0.15463870784E+02  0.74367923638E+01  0.36860935991E+02  0.50528858563E+02  0.29999996087E+02 0.  0.
         12    1    1    2    0    0 -0.15463870784E+02 -0.74367923638E+01 -0.36860935991E+02  0.40659141437E+02  0.00000000000E+00 0. -1.
         11    1    3    3    0    0 -0.11275134853E+01 -0.24976067542E+01 -0.78638498399E+00  0.28509170037E+01  0.51100000000E-03 0. -1.
        -11    1    3    3    0    0  0.93497753605E+01  0.14188843311E+02  0.12304326824E+02  0.20979466930E+02  0.51100000000E-03 0.  1.
        -12    1    3    3    0    0  0.72416089089E+01 -0.42544441931E+01  0.25342994151E+02  0.26698474629E+02  0.00000000000E+00 0.  1.
</event>
<event>
 7    1  0.5972636E-013  0.5052879E+02  0.7816164E-02  0.1300439E+00
        -11   -1    0    0    0    0  0.00000000000E+00  0.00000000000E+00  0.45593999997E+02  0.45594000000E+02  0.51100000000E-03 0. -1.
         11   -1    0    0    0    0 -0.00000000000E+00 -0.00000000000E+00 -0.45593999997E+02  0.45594000000E+02  0.51100000000E-03 0.  1.
    9900012    2    1    2    0    0 -0.35585571260E+01  0.36448041912E+02 -0.17664882597E+02  0.50528792368E+02  0.29999794882E+02 0.  0.
         12    1    1    2    0    0  0.35585571260E+01 -0.36448041912E+02  0.17664882597E+02  0.40659207632E+02  0.00000000000E+00 0. -1.
         11    1    3    3    0    0  0.81437519183E+00  0.41390653553E+00  0.18402965106E+01  0.20545600700E+01  0.51100000000E-03 0. -1.
        -11    1    3    3    0    0 -0.42773809014E+01  0.31001127641E+02 -0.25697774983E+02  0.40493722251E+02  0.51100000000E-03 0.  1.
        -12    1    3    3    0    0 -0.95551416441E-01  0.50330077363E+01  0.61925958751E+01  0.79805100476E+01  0.00000000000E+00 0.  1.
</event>
<event>
 7    1  0.5972636E-013  0.5052886E+02  0.7816164E-02  0.1300439E+00
        -11   -1    0    0    0    0  0.00000000000E+00  0.00000000000E+00  0.45593999997E+02  0.45594000000E+02  0.51100000000E-03 0.  1.
         11   -1    0    0    0    0 -0.00000000000E+00 -0.00000000000E+00 -0.45593999997E+02  0.45594000000E+02  0.51100000000E-03 0. -1.
    9900012    2    1    2    0    0 -0.15392755744E+02 -0.15908237112E+02  0.34105084404E+02  0.50528859336E+02  0.29999998436E+02 0.  0.
         12    1    1    2    0    0  0.15392755744E+02  0.15908237112E+02 -0.34105084404E+02  0.40659140664E+02  0.00000000000E+00 0. -1.
         11    1    3    3    0    0  0.85492385468E+01 -0.57280799297E+01  0.73569223916E+01  0.12650086432E+02  0.51100000000E-03 0. -1.
        -11    1    3    3    0    0 -0.11958174624E+02 -0.16464179792E+01  0.13057985715E+02  0.17782565161E+02  0.51100000000E-03 0.  1.
         12    1    3    3    0    0 -0.11983819666E+02 -0.85337392031E+01  0.13690176297E+02  0.20096207742E+02  0.00000000000E+00 0. -1.
</event>
<event>
 7    1  0.5972636E-013  0.5052886E+02  0.7816164E-02  0.1300439E+00
        -11   -1    0    0    0    0  0.00000000000E+00  0.00000000000E+00  0.45593999997E+02  0.45594000000E+02  0.51100000000E-03 0. -1.
         11   -1    0    0    0    0 -0.00000000000E+00 -0.00000000000E+00 -0.45593999997E+02  0.45594000000E+02  0.51100000000E-03 0.  1.
    9900012    2    1    2    0    0  0.15150331498E+02 -0.34285582465E+02 -0.15752208372E+02  0.50528858617E+02  0.29999996251E+02 0.  0.
         12    1    1    2    0    0 -0.15150331498E+02  0.34285582465E+02  0.15752208372E+02  0.40659141383E+02  0.00000000000E+00 0. -1.
         11    1    3    3    0    0  0.65277484431E+01  0.22803901070E+01  0.14179629818E+01  0.70584912025E+01  0.51100000000E-03 0. -1.
        -11    1    3    3    0    0  0.64938561849E-01 -0.13961011539E+02 -0.24538569365E+00  0.13963318897E+02  0.51100000000E-03 0.  1.
         12    1    3    3    0    0  0.85576444929E+01 -0.22604961033E+02 -0.16924785661E+02  0.29507048517E+02  0.00000000000E+00 0. -1.
</event>
<event>
 7    1  0.5972636E-013  0.5052886E+02  0.7816164E-02  0.1300439E+00
        -11   -1    0    0    0    0  0.00000000000E+00  0.00000000000E+00  0.45593999997E+02  0.45594000000E+02  0.51100000000E-03 0. -1.
         11   -1    0    0    0    0 -0.00000000000E+00 -0.00000000000E+00 -0.45593999997E+02  0.45594000000E+02  0.51100000000E-03 0.  1.
    9900012    2    1    2    0    0  0.35316312545E+02 -0.76121616581E+01 -0.18654179536E+02  0.50528863868E+02  0.30000012212E+02 0.  0.
         12    1    1    2    0    0 -0.35316312545E+02  0.76121616581E+01  0.18654179536E+02  0.40659136132E+02  0.00000000000E+00 0. -1.
         11    1    3    3    0    0  0.12785524477E+02 -0.33425822668E+01 -0.19615523054E+02  0.23651875979E+02  0.51100000000E-03 0. -1.
        -11    1    3    3    0    0  0.17604414325E+02  0.25464066526E+01 -0.21347312520E+01  0.17915263558E+02  0.51100000000E-03 0.  1.
        -12    1    3    3    0    0  0.49263737431E+01 -0.68159860439E+01  0.30960747701E+01  0.89617243312E+01  0.00000000000E+00 0.  1.
</event>
<event>
 7    1  0.5972636E-013  0.5052886E+02  0.7816164E-02  0.1300439E+00
        -11   -1    0    0    0    0  0.00000000000E+00  0.00000000000E+00  0.45593999997E+02  0.45594000000E+02  0.51100000000E-03 0.  1.
         11   -1    0    0    0    0 -0.00000000000E+00 -0.00000000000E+00 -0.45593999997E+02  0.45594000000E+02  0.51100000000E-03 0. -1.
    9900012    2    1    2    0    0  0.58861846992E+01  0.10288220586E+02  0.38893071592E+02  0.50528859933E+02  0.30000000252E+02 0.  0.
         12    1    1    2    0    0 -0.58861846992E+01 -0.10288220586E+02 -0.38893071592E+02  0.40659140067E+02  0.00000000000E+00 0. -1.
         11    1    3    3    0    0 -0.45610482669E+01  0.12717581407E+02  0.54626975518E+01  0.14573301031E+02  0.51100000000E-03 0. -1.
        -11    1    3    3    0    0  0.97655097136E+01 -0.11417565515E+00  0.19404512574E+02  0.21723566110E+02  0.51100000000E-03 0.  1.
         12    1    3    3    0    0  0.68172325248E+00 -0.23151851661E+01  0.14025861466E+02  0.14231992792E+02  0.00000000000E+00 0. -1.
</event>
<event>
 7    1  0.5972636E-013  0.5052886E+02  0.7816164E-02  0.1300439E+00
        -11   -1    0    0    0    0  0.00000000000E+00  0.00000000000E+00  0.45593999997E+02  0.45594000000E+02  0.51100000000E-03 0. -1.
         11   -1    0    0    0    0 -0.00000000000E+00 -0.00000000000E+00 -0.45593999997E+02  0.45594000000E+02  0.51100000000E-03 0.  1.
    9900012    2    1    2    0    0 -0.31914741316E+02  0.23830111689E+02 -0.81694952961E+01  0.50528860931E+02  0.30000003287E+02 0.  0.
         12    1    1    2    0    0  0.31914741316E+02 -0.23830111689E+02  0.81694952961E+01  0.40659139069E+02  0.00000000000E+00 0. -1.
         11    1    3    3    0    0 -0.21950690187E+02  0.33092717645E+01 -0.49022790689E+01  0.22733596715E+02  0.51100000000E-03 0. -1.
        -11    1    3    3    0    0 -0.96948554411E+01  0.21349292421E+02  0.97189814138E+00  0.23467575400E+02  0.51100000000E-03 0.  1.
        -12    1    3    3    0    0 -0.26919568848E+00 -0.82845249640E+00 -0.42391143686E+01  0.43276888160E+01  0.00000000000E+00 0.  1.
</event>
<event>
 7    1  0.5972636E-013  0.5052886E+02  0.7816164E-02  0.1300439E+00
        -11   -1    0    0    0    0  0.00000000000E+00  0.00000000000E+00  0.45593999997E+02  0.45594000000E+02  0.51100000000E-03 0.  1.
         11   -1    0    0    0    0 -0.00000000000E+00 -0.00000000000E+00 -0.45593999997E+02  0.45594000000E+02  0.51100000000E-03 0. -1.
    9900012    2    1    2    0    0  0.99365140504E+00 -0.22432131694E+02  0.33896575402E+02  0.50528859583E+02  0.29999999189E+02 0.  0.
         12    1    1    2    0    0 -0.99365140504E+00  0.22432131694E+02 -0.33896575402E+02  0.40659140417E+02  0.00000000000E+00 0. -1.
         11    1    3    3    0    0 -0.55148045341E+01 -0.80794713107E+01  0.28146063309E+02  0.29797513416E+02  0.51100000000E-03 0. -1.
        -11    1    3    3    0    0 -0.32618780102E+01 -0.61600334822E+01  0.65790727411E+00  0.70013357938E+01  0.51100000000E-03 0.  1.
         12    1    3    3    0    0  0.97703339493E+01 -0.81926269014E+01  0.50926048188E+01  0.13730010374E+02  0.00000000000E+00 0. -1.
</event>
<event>
 7    1  0.5972636E-013  0.5052886E+02  0.7816164E-02  0.1300439E+00
        -11   -1    0    0    0    0  0.00000000000E+00  0.00000000000E+00  0.45593999997E+02  0.45594000000E+02  0.51100000000E-03 0. -1.
         11   -1    0    0    0    0 -0.00000000000E+00 -0.00000000000E+00 -0.45593999997E+02  0.45594000000E+02  0.51100000000E-03 0.  1.
    9900012    2    1    2    0    0 -0.53477409985E+01  0.37558778473E+02  0.14625498481E+02  0.50528863512E+02  0.30000011130E+02 0.  0.
         12    1    1    2    0    0  0.53477409985E+01 -0.37558778473E+02 -0.14625498481E+02  0.40659136488E+02  0.00000000000E+00 0. -1.
         11    1    3    3    0    0 -0.19481444456E+01 -0.18151707988E+01  0.48673520821E+00  0.27068474715E+01  0.51100000000E-03 0. -1.
        -11    1    3    3    0    0  0.48540857589E+01  0.21125930819E+02 -0.24524016340E+01  0.21814705489E+02  0.51100000000E-03 0.  1.
        -12    1    3    3    0    0 -0.82536823118E+01  0.18248018452E+02  0.16591164907E+02  0.26007310551E+02  0.00000000000E+00 0.  1.
</event>
<event>
 7    1  0.5972636E-013  0.5052887E+02  0.7816164E-02  0.1300439E+00
        -11   -1    0    0    0    0  0.00000000000E+00  0.00000000000E+00  0.45593999997E+02  0.45594000000E+02  0.51100000000E-03 0.  1.
         11   -1    0    0    0    0 -0.00000000000E+00 -0.00000000000E+00 -0.45593999997E+02  0.45594000000E+02  0.51100000000E-03 0. -1.
    9900012    2    1    2    0    0  0.17580819915E+02 -0.29293426988E+01  0.36544479348E+02  0.50528865130E+02  0.30000016049E+02 0.  0.
         12    1    1    2    0    0 -0.17580819915E+02  0.29293426988E+01 -0.36544479348E+02  0.40659134870E+02  0.00000000000E+00 0. -1.
         11    1    3    3    0    0 -0.11830436459E+01  0.37476834888E+01  0.71143953184E+01  0.81276900044E+01  0.51100000000E-03 0. -1.
        -11    1    3    3    0    0  0.19590814861E+02 -0.12522073984E+02  0.27870163215E+02  0.36295293933E+02  0.51100000000E-03 0.  1.
        -12    1    3    3    0    0 -0.82695130079E+00  0.58450477961E+01  0.15599208155E+01  0.61058811930E+01  0.00000000000E+00 0.  1.
</event>
<event>
 7    1  0.5972636E-013  0.5052887E+02  0.7816164E-02  0.1300439E+00
        -11   -1    0    0    0    0  0.00000000000E+00  0.00000000000E+00  0.45593999997E+02  0.45594000000E+02  0.51100000000E-03 0.  1.
         11   -1    0    0    0    0 -0.00000000000E+00 -0.00000000000E+00 -0.45593999997E+02  0.45594000000E+02  0.51100000000E-03 0. -1.
    9900012    2    1    2    0    0  0.32239848154E+02 -0.23978706691E+02 -0.62272640465E+01  0.50528868171E+02  0.30000025293E+02 0.  0.
         12    1    1    2    0    0 -0.32239848154E+02  0.23978706691E+02  0.62272640465E+01  0.40659131829E+02  0.00000000000E+00 0. -1.
         11    1    3    3    0    0  0.77886825673E+01 -0.71557275626E+01 -0.15335178020E+02  0.18628894177E+02  0.51100000000E-03 0. -1.
        -11    1    3    3    0    0  0.97981791806E+01 -0.64934847739E+01 -0.80029213469E-01  0.11754831547E+02  0.51100000000E-03 0.  1.
         12    1    3    3    0    0  0.14652986406E+02 -0.10329494355E+02  0.91879431867E+01  0.20145142448E+02  0.00000000000E+00 0. -1.
</event>
<event>
 7    1  0.5972636E-013  0.5052886E+02  0.7816164E-02  0.1300439E+00
        -11   -1    0    0    0    0  0.00000000000E+00  0.00000000000E+00  0.45593999997E+02  0.45594000000E+02  0.51100000000E-03 0.  1.
         11   -1    0    0    0    0 -0.00000000000E+00 -0.00000000000E+00 -0.45593999997E+02  0.45594000000E+02  0.51100000000E-03 0. -1.
    9900012    2    1    2    0    0  0.15290947879E+02  0.37671418172E+02  0.46580523711E+00  0.50528858240E+02  0.29999995107E+02 0.  0.
         12    1    1    2    0    0 -0.15290947879E+02 -0.37671418172E+02 -0.46580523711E+00  0.40659141760E+02  0.00000000000E+00 0. -1.
         11    1    3    3    0    0  0.10841524365E+02  0.97947717731E+01 -0.87926103415E+01  0.17052454414E+02  0.51100000000E-03 0. -1.
        -11    1    3    3    0    0  0.76418901471E+00  0.26554861569E+02  0.11518819847E+02  0.28955618949E+02  0.51100000000E-03 0.  1.
        -12    1    3    3    0    0  0.36852344992E+01  0.13217848303E+01 -0.22604042688E+01  0.45207848777E+01  0.00000000000E+00 0.  1.
</event>
<event>
 7    1  0.5972636E-013  0.5052886E+02  0.7816164E-02  0.1300439E+00
        -11   -1    0    0    0    0  0.00000000000E+00  0.00000000000E+00  0.45593999997E+02  0.45594000000E+02  0.51100000000E-03 0.  1.
         11   -1    0    0    0    0 -0.00000000000E+00 -0.00000000000E+00 -0.45593999997E+02  0.45594000000E+02  0.51100000000E-03 0. -1.
    9900012    2    1    2    0    0  0.35892255854E+01 -0.37822777775E+01  0.40323411619E+02  0.50528859698E+02  0.29999999539E+02 0.  0.
         12    1    1    2    0    0 -0.35892255854E+01  0.37822777775E+01 -0.40323411619E+02  0.40659140302E+02  0.00000000000E+00 0. -1.
         11    1    3    3    0    0  0.61358057751E+00 -0.68321944871E+01  0.48996928706E-01  0.68598661499E+01  0.51100000000E-03 0. -1.
        -11    1    3    3    0    0  0.93318014999E+01  0.44924745701E+01  0.25275722074E+02  0.27315324886E+02  0.51100000000E-03 0.  1.
         12    1    3    3    0    0 -0.63561564920E+01 -0.14425578605E+01  0.14998692616E+02  0.16353668663E+02  0.00000000000E+00 0. -1.
</event>
<event>
 7    1  0.5972636E-013  0.5052882E+02  0.7816164E-02  0.1300439E+00
        -11   -1    0    0    0    0  0.00000000000E+00  0.00000000000E+00  0.45593999997E+02  0.45594000000E+02  0.51100000000E-03 0. -1.
         11   -1    0    0    0    0 -0.00000000000E+00 -0.00000000000E+00 -0.45593999997E+02  0.45594000000E+02  0.51100000000E-03 0.  1.
    9900012    2    1    2    0    0 -0.17205404193E+02  0.14785826134E+02 -0.33741993184E+02  0.50528822783E+02  0.29999887330E+02 0.  0.
         12    1    1    2    0    0  0.17205404193E+02 -0.14785826134E+02  0.33741993184E+02  0.40659177217E+02  0.00000000000E+00 0. -1.
         11    1    3    3    0    0 -0.19087166400E+02  0.15293735396E+02 -0.13783850740E+02  0.28075127872E+02  0.51100000000E-03 0.  1.
        -11    1    3    3    0    0  0.10697038173E+01 -0.25612511884E+01 -0.20052403981E+02  0.20243596014E+02  0.51100000000E-03 0. -1.
        -12    1    3    3    0    0  0.81205838915E+00  0.20533419267E+01  0.94261536811E-01  0.22100988966E+01  0.00000000000E+00 0.  1.
</event>
<event>
 7    1  0.5972636E-013  0.5052886E+02  0.7816164E-02  0.1300439E+00
        -11   -1    0    0    0    0  0.00000000000E+00  0.00000000000E+00  0.45593999997E+02  0.45594000000E+02  0.51100000000E-03 0. -1.
         11   -1    0    0    0    0 -0.00000000000E+00 -0.00000000000E+00 -0.45593999997E+02  0.45594000000E+02  0.51100000000E-03 0.  1.
    9900012    2    1    2    0    0  0.17442599504E+02  0.96117175961E+01 -0.35447655158E+02  0.50528860205E+02  0.30000001080E+02 0.  0.
         12    1    1    2    0    0 -0.17442599504E+02 -0.96117175961E+01  0.35447655158E+02  0.40659139795E+02  0.00000000000E+00 0. -1.
         11    1    3    3    0    0  0.16149968166E+02  0.11963262211E+02 -0.17531429550E+02  0.26670060683E+02  0.51100000000E-03 0. -1.
        -11    1    3    3    0    0  0.44322115081E+01 -0.39410113154E+01 -0.19213669111E+02  0.20108235875E+02  0.51100000000E-03 0.  1.
         12    1    3    3    0    0 -0.31395801701E+01  0.15894667002E+01  0.12974435021E+01  0.37505636478E+01  0.00000000000E+00 0. -1.
</event>
<event>
 7    1  0.5972636E-013  0.5052885E+02  0.7816164E-02  0.1300439E+00
        -11   -1    0    0    0    0  0.00000000000E+00  0.00000000000E+00  0.45593999997E+02  0.45594000000E+02  0.51100000000E-03 0. -1.
         11   -1    0    0    0    0 -0.00000000000E+00 -0.00000000000E+00 -0.45593999997E+02  0.45594000000E+02  0.51100000000E-03 0.  1.
    9900012    2    1    2    0    0  0.21654863095E+02  0.25200938055E+02  0.23433870135E+02  0.50528847967E+02  0.29999963882E+02 0.  0.
         12    1    1    2    0    0 -0.21654863095E+02 -0.25200938055E+02 -0.23433870135E+02  0.40659152033E+02  0.00000000000E+00 0. -1.
         11    1    3    3    0    0  0.71720440762E+01  0.19683844782E+02  0.20276750937E+02  0.29155421288E+02  0.51100000000E-03 0. -1.
        -11    1    3    3    0    0 -0.14672652262E+01  0.39195357502E+01 -0.18555453566E+01  0.45780647192E+01  0.51100000000E-03 0.  1.
         12    1    3    3    0    0  0.15950084245E+02  0.15975575226E+01  0.50126645546E+01  0.16795361961E+02  0.00000000000E+00 0. -1.
</event>
<event>
 7    1  0.5972636E-013  0.5052894E+02  0.7816164E-02  0.1300439E+00
        -11   -1    0    0    0    0  0.00000000000E+00  0.00000000000E+00  0.45593999997E+02  0.45594000000E+02  0.51100000000E-03 0.  1.
         11   -1    0    0    0    0 -0.00000000000E+00 -0.00000000000E+00 -0.45593999997E+02  0.45594000000E+02  0.51100000000E-03 0. -1.
    9900012    2    1    2    0    0 -0.66994301687E+01 -0.10148068970E+02  0.38798112043E+02  0.50528939921E+02  0.30000243382E+02 0.  0.
         12    1    1    2    0    0  0.66994301687E+01  0.10148068970E+02 -0.38798112043E+02  0.40659060079E+02  0.00000000000E+00 0. -1.
         11    1    3    3    0    0 -0.26610651743E+01 -0.44168596256E+00 -0.68588812970E+00  0.27833068712E+01  0.51100000000E-03 0. -1.
        -11    1    3    3    0    0 -0.60478833469E+01 -0.13543925139E+02  0.40639932371E+02  0.43262211045E+02  0.51100000000E-03 0.  1.
        -12    1    3    3    0    0  0.20095183525E+01  0.38375421315E+01 -0.11559321983E+01  0.44834220042E+01  0.00000000000E+00 0.  1.
</event>
<event>
 7    1  0.5972636E-013  0.5052885E+02  0.7816164E-02  0.1300439E+00
        -11   -1    0    0    0    0  0.00000000000E+00  0.00000000000E+00  0.45593999997E+02  0.45594000000E+02  0.51100000000E-03 0. -1.
         11   -1    0    0    0    0 -0.00000000000E+00 -0.00000000000E+00 -0.45593999997E+02  0.45594000000E+02  0.51100000000E-03 0.  1.
    9900012    2    1    2    0    0  0.28336267028E+02 -0.20895619985E+02 -0.20337047714E+02  0.50528850066E+02  0.29999970261E+02 0.  0.
         12    1    1    2    0    0 -0.28336267028E+02  0.20895619985E+02  0.20337047714E+02  0.40659149934E+02  0.00000000000E+00 0. -1.
         11    1    3    3    0    0  0.84919374070E+01 -0.53792288667E+00 -0.58789717711E+01  0.10342372615E+02  0.51100000000E-03 0. -1.
        -11    1    3    3    0    0  0.16663443077E+01 -0.11185596981E+01  0.62598731203E+01  0.65737273212E+01  0.51100000000E-03 0.  1.
        -12    1    3    3    0    0  0.18177985313E+02 -0.19239137400E+02 -0.20717949063E+02  0.33612750130E+02  0.00000000000E+00 0.  1.
</event>
<event>
 7    1  0.5972636E-013  0.5052887E+02  0.7816164E-02  0.1300439E+00
        -11   -1    0    0    0    0  0.00000000000E+00  0.00000000000E+00  0.45593999997E+02  0.45594000000E+02  0.51100000000E-03 0.  1.
         11   -1    0    0    0    0 -0.00000000000E+00 -0.00000000000E+00 -0.45593999997E+02  0.45594000000E+02  0.51100000000E-03 0. -1.
    9900012    2    1    2    0    0  0.29714169025E+02 -0.86910028059E+01  0.26357155971E+02  0.50528867674E+02  0.30000023781E+02 0.  0.
         12    1    1    2    0    0 -0.29714169025E+02  0.86910028059E+01 -0.26357155971E+02  0.40659132326E+02  0.00000000000E+00 0. -1.
         11    1    3    3    0    0  0.23543366358E+02  0.52559970362E+01  0.14823779657E+02  0.28313601818E+02  0.51100000000E-03 0. -1.
        -11    1    3    3    0    0  0.83586433807E+01 -0.12490590752E+02  0.61777807717E+01  0.16249515440E+02  0.51100000000E-03 0.  1.
        -12    1    3    3    0    0 -0.21878407129E+01 -0.14564090898E+01  0.53555955419E+01  0.59657504163E+01  0.00000000000E+00 0.  1.
</event>
<event>
 7    1  0.5972636E-013  0.5052886E+02  0.7816164E-02  0.1300439E+00
        -11   -1    0    0    0    0  0.00000000000E+00  0.00000000000E+00  0.45593999997E+02  0.45594000000E+02  0.51100000000E-03 0. -1.
         11   -1    0    0    0    0 -0.00000000000E+00 -0.00000000000E+00 -0.45593999997E+02  0.45594000000E+02  0.51100000000E-03 0.  1.
    9900012    2    1    2    0    0  0.13491045521E+02  0.62402018741E+01 -0.37844643637E+02  0.50528862273E+02  0.30000007364E+02 0.  0.
         12    1    1    2    0    0 -0.13491045521E+02 -0.62402018741E+01  0.37844643637E+02  0.40659137727E+02  0.00000000000E+00 0. -1.
         11    1    3    3    0    0  0.15689028659E+02  0.64003783242E+01 -0.60916630173E+01  0.18006077350E+02  0.51100000000E-03 0. -1.
        -11    1    3    3    0    0 -0.48793525137E+00  0.29815905048E+01 -0.20317826031E+02  0.20541227267E+02  0.51100000000E-03 0.  1.
         12    1    3    3    0    0 -0.17100478870E+01 -0.31417669549E+01 -0.11435154590E+02  0.11981557656E+02  0.00000000000E+00 0. -1.
</event>
<event>
 7    1  0.5972636E-013  0.5052886E+02  0.7816164E-02  0.1300439E+00
        -11   -1    0    0    0    0  0.00000000000E+00  0.00000000000E+00  0.45593999997E+02  0.45594000000E+02  0.51100000000E-03 0. -1.
         11   -1    0    0    0    0 -0.00000000000E+00 -0.00000000000E+00 -0.45593999997E+02  0.45594000000E+02  0.51100000000E-03 0.  1.
    9900012    2    1    2    0    0 -0.36705260070E+01  0.37901299928E+02 -0.14254270636E+02  0.50528861682E+02  0.30000005568E+02 0.  0.
         12    1    1    2    0    0  0.36705260070E+01 -0.37901299928E+02  0.14254270636E+02  0.40659138318E+02  0.00000000000E+00 0. -1.
         11    1    3    3    0    0 -0.89707546622E+01  0.37775963666E+01 -0.13644109396E+01  0.98288499323E+01  0.51100000000E-03 0. -1.
        -11    1    3    3    0    0  0.97506230541E+01  0.17473712681E+02 -0.15513445157E+01  0.20070175756E+02  0.51100000000E-03 0.  1.
        -12    1    3    3    0    0 -0.44503943989E+01  0.16649990881E+02 -0.11338515181E+02  0.20629835994E+02  0.00000000000E+00 0.  1.
</event>
<event>
 7    1  0.5972636E-013  0.5052885E+02  0.7816164E-02  0.1300439E+00
        -11   -1    0    0    0    0  0.00000000000E+00  0.00000000000E+00  0.45593999997E+02  0.45594000000E+02  0.51100000000E-03 0.  1.
         11   -1    0    0    0    0 -0.00000000000E+00 -0.00000000000E+00 -0.45593999997E+02  0.45594000000E+02  0.51100000000E-03 0. -1.
    9900012    2    1    2    0    0  0.17617065315E+01 -0.98136713992E+01  0.39417697888E+02  0.50528847733E+02  0.29999963170E+02 0.  0.
         12    1    1    2    0    0 -0.17617065315E+01  0.98136713992E+01 -0.39417697888E+02  0.40659152267E+02  0.00000000000E+00 0. -1.
         11    1    3    3    0    0 -0.11756608510E+01 -0.50017146249E+01 -0.36775288796E+01  0.63185082533E+01  0.51100000000E-03 0. -1.
        -11    1    3    3    0    0 -0.24261027127E+01 -0.77844940537E+00  0.60898813973E+01  0.66014099664E+01  0.51100000000E-03 0.  1.
         12    1    3    3    0    0  0.53634700952E+01 -0.40335073690E+01  0.37005345371E+02  0.37608929514E+02  0.00000000000E+00 0. -1.
</event>
<event>
 7    1  0.5972636E-013  0.5052885E+02  0.7816164E-02  0.1300439E+00
        -11   -1    0    0    0    0  0.00000000000E+00  0.00000000000E+00  0.45593999997E+02  0.45594000000E+02  0.51100000000E-03 0.  1.
         11   -1    0    0    0    0 -0.00000000000E+00 -0.00000000000E+00 -0.45593999997E+02  0.45594000000E+02  0.51100000000E-03 0. -1.
    9900012    2    1    2    0    0  0.13651172466E+02 -0.23431880807E+02  0.30294529803E+02  0.50528854856E+02  0.29999984819E+02 0.  0.
         12    1    1    2    0    0 -0.13651172466E+02  0.23431880807E+02 -0.30294529803E+02  0.40659145144E+02  0.00000000000E+00 0. -1.
         11    1    3    3    0    0  0.40000981746E+00 -0.13334605046E+02  0.15775975393E+01  0.13433559240E+02  0.51100000000E-03 0. -1.
        -11    1    3    3    0    0  0.95903601822E+01 -0.14673049029E+02  0.20036915855E+02  0.26622384820E+02  0.51100000000E-03 0.  1.
         12    1    3    3    0    0  0.36608024667E+01  0.45757732678E+01  0.86800164085E+01  0.10472910796E+02  0.00000000000E+00 0. -1.
</event>
<event>
 7    1  0.5972636E-013  0.5052887E+02  0.7816164E-02  0.1300439E+00
        -11   -1    0    0    0    0  0.00000000000E+00  0.00000000000E+00  0.45593999997E+02  0.45594000000E+02  0.51100000000E-03 0.  1.
         11   -1    0    0    0    0 -0.00000000000E+00 -0.00000000000E+00 -0.45593999997E+02  0.45594000000E+02  0.51100000000E-03 0. -1.
    9900012    2    1    2    0    0  0.34382302438E+02  0.30670761721E+01  0.21485235364E+02  0.50528867990E+02  0.30000024743E+02 0.  0.
         12    1    1    2    0    0 -0.34382302438E+02 -0.30670761721E+01 -0.21485235364E+02  0.40659132010E+02  0.00000000000E+00 0. -1.
         11    1    3    3    0    0  0.46706470390E+01 -0.94619945319E+00 -0.63771297373E+01  0.79610314103E+01  0.51100000000E-03 0. -1.
        -11    1    3    3    0    0  0.27910344080E+02  0.47674942423E+01  0.20515139963E+02  0.34965515526E+02  0.51100000000E-03 0.  1.
        -12    1    3    3    0    0  0.18013113190E+01 -0.75421861703E+00  0.73472251375E+01  0.76023210542E+01  0.00000000000E+00 0.  1.
</event>
<event>
 7    1  0.5972636E-013  0.5052888E+02  0.7816164E-02  0.1300439E+00
        -11   -1    0    0    0    0  0.00000000000E+00  0.00000000000E+00  0.45593999997E+02  0.45594000000E+02  0.51100000000E-03 0.  1.
         11   -1    0    0    0    0 -0.00000000000E+00 -0.00000000000E+00 -0.45593999997E+02  0.45594000000E+02  0.51100000000E-03 0. -1.
    9900012    2    1    2    0    0 -0.34699575384E+02  0.19467499056E+02  0.83737766887E+01  0.50528878177E+02  0.30000055707E+02 0.  0.
         12    1    1    2    0    0  0.34699575384E+02 -0.19467499056E+02 -0.83737766887E+01  0.40659121823E+02  0.00000000000E+00 0. -1.
         11    1    3    3    0    0 -0.13825913987E+01 -0.15867548522E+01  0.10077079949E+01  0.23334150083E+01  0.51100000000E-03 0. -1.
        -11    1    3    3    0    0 -0.30563381409E+02  0.22524907543E+02 -0.23012054694E+01  0.38036657185E+02  0.51100000000E-03 0.  1.
        -12    1    3    3    0    0 -0.27536025767E+01 -0.14706536343E+01  0.96672741632E+01  0.10158805983E+02  0.00000000000E+00 0.  1.
</event>
<event>
 7    1  0.5972636E-013  0.5052886E+02  0.7816164E-02  0.1300439E+00
        -11   -1    0    0    0    0  0.00000000000E+00  0.00000000000E+00  0.45593999997E+02  0.45594000000E+02  0.51100000000E-03 0.  1.
         11   -1    0    0    0    0 -0.00000000000E+00 -0.00000000000E+00 -0.45593999997E+02  0.45594000000E+02  0.51100000000E-03 0. -1.
    9900012    2    1    2    0    0 -0.26514878849E+02 -0.15642805068E+02  0.26559922913E+02  0.50528860118E+02  0.30000000814E+02 0.  0.
         12    1    1    2    0    0  0.26514878849E+02  0.15642805068E+02 -0.26559922913E+02  0.40659139882E+02  0.00000000000E+00 0. -1.
         11    1    3    3    0    0 -0.18347125278E+02 -0.12592831751E+02  0.32764829855E+01  0.22492926855E+02  0.51100000000E-03 0. -1.
        -11    1    3    3    0    0 -0.33303904877E+01 -0.75034836790E+01  0.17285905092E+02  0.19136255726E+02  0.51100000000E-03 0.  1.
         12    1    3    3    0    0 -0.48373630837E+01  0.44535103621E+01  0.59975348362E+01  0.88996775369E+01  0.00000000000E+00 0. -1.
</event>
<event>
 7    1  0.5972636E-013  0.5052886E+02  0.7816164E-02  0.1300439E+00
        -11   -1    0    0    0    0  0.00000000000E+00  0.00000000000E+00  0.45593999997E+02  0.45594000000E+02  0.51100000000E-03 0.  1.
         11   -1    0    0    0    0 -0.00000000000E+00 -0.00000000000E+00 -0.45593999997E+02  0.45594000000E+02  0.51100000000E-03 0. -1.
    9900012    2    1    2    0    0  0.13517537134E+02  0.35616401352E+02  0.14209642480E+02  0.50528858410E+02  0.29999995622E+02 0.  0.
         12    1    1    2    0    0 -0.13517537134E+02 -0.35616401352E+02 -0.14209642480E+02  0.40659141590E+02  0.00000000000E+00 0. -1.
         11    1    3    3    0    0  0.60944253143E+01  0.27748652771E+02  0.53552047923E+01  0.28910343636E+02  0.51100000000E-03 0.  1.
        -11    1    3    3    0    0  0.91208114815E+01 -0.22197390621E+01  0.31227656911E+01  0.98928312130E+01  0.51100000000E-03 0. -1.
         12    1    3    3    0    0 -0.16976996617E+01  0.10087487644E+02  0.57316719963E+01  0.11725683561E+02  0.00000000000E+00 0. -1.
</event>
<event>
 7    1  0.5972636E-013  0.5052886E+02  0.7816164E-02  0.1300439E+00
        -11   -1    0    0    0    0  0.00000000000E+00  0.00000000000E+00  0.45593999997E+02  0.45594000000E+02  0.51100000000E-03 0.  1.
         11   -1    0    0    0    0 -0.00000000000E+00 -0.00000000000E+00 -0.45593999997E+02  0.45594000000E+02  0.51100000000E-03 0. -1.
    9900012    2    1    2    0    0 -0.61051188927E+01 -0.21477922237E+02  0.33979289440E+02  0.50528859193E+02  0.29999998004E+02 0.  0.
         12    1    1    2    0    0  0.61051188927E+01  0.21477922237E+02 -0.33979289440E+02  0.40659140807E+02  0.00000000000E+00 0. -1.
         11    1    3    3    0    0 -0.66783450138E+01  0.27684438562E+01  0.23906451943E+01  0.76144440515E+01  0.51100000000E-03 0.  1.
        -11    1    3    3    0    0 -0.15352435020E+01 -0.18455863074E+02  0.11264050476E+02  0.21676131753E+02  0.51100000000E-03 0. -1.
        -12    1    3    3    0    0  0.21084696230E+01 -0.57905030195E+01  0.20324593770E+02  0.21238283388E+02  0.00000000000E+00 0.  1.
</event>
<event>
 7    1  0.5972636E-013  0.5052885E+02  0.7816164E-02  0.1300439E+00
        -11   -1    0    0    0    0  0.00000000000E+00  0.00000000000E+00  0.45593999997E+02  0.45594000000E+02  0.51100000000E-03 0.  1.
         11   -1    0    0    0    0 -0.00000000000E+00 -0.00000000000E+00 -0.45593999997E+02  0.45594000000E+02  0.51100000000E-03 0. -1.
    9900012    2    1    2    0    0 -0.28850061959E+02 -0.28111893147E+02  0.55282772656E+01  0.50528850219E+02  0.29999970727E+02 0.  0.
         12    1    1    2    0    0  0.28850061959E+02  0.28111893147E+02 -0.55282772656E+01  0.40659149781E+02  0.00000000000E+00 0. -1.
         11    1    3    3    0    0 -0.19358968455E+02 -0.22141148430E+02 -0.96011801567E+01  0.30938370579E+02  0.51100000000E-03 0. -1.
        -11    1    3    3    0    0 -0.32468988080E+01 -0.46417594571E+01  0.95904712052E+01  0.11138465825E+02  0.51100000000E-03 0.  1.
         12    1    3    3    0    0 -0.62441946964E+01 -0.13289852599E+01  0.55389862171E+01  0.84520138157E+01  0.00000000000E+00 0. -1.
</event>
<event>
 7    1  0.5972636E-013  0.5052886E+02  0.7816164E-02  0.1300439E+00
        -11   -1    0    0    0    0  0.00000000000E+00  0.00000000000E+00  0.45593999997E+02  0.45594000000E+02  0.51100000000E-03 0. -1.
         11   -1    0    0    0    0 -0.00000000000E+00 -0.00000000000E+00 -0.45593999997E+02  0.45594000000E+02  0.51100000000E-03 0.  1.
    9900012    2    1    2    0    0 -0.17125300441E+02 -0.34903095995E+00 -0.36875029843E+02  0.50528861252E+02  0.30000004260E+02 0.  0.
         12    1    1    2    0    0  0.17125300441E+02  0.34903095995E+00  0.36875029843E+02  0.40659138748E+02  0.00000000000E+00 0. -1.
         11    1    3    3    0    0 -0.20022729662E+02 -0.44680588842E+01 -0.34765485299E+02  0.40367217165E+02  0.51100000000E-03 0. -1.
        -11    1    3    3    0    0 -0.16270763962E+01  0.63166109519E+00  0.23410269331E+01  0.29200651878E+01  0.51100000000E-03 0.  1.
         12    1    3    3    0    0  0.45245056163E+01  0.34873668291E+01 -0.44505714771E+01  0.72415788986E+01  0.00000000000E+00 0. -1.
</event>
<event>
 7    1  0.5972636E-013  0.5052887E+02  0.7816164E-02  0.1300439E+00
        -11   -1    0    0    0    0  0.00000000000E+00  0.00000000000E+00  0.45593999997E+02  0.45594000000E+02  0.51100000000E-03 0. -1.
         11   -1    0    0    0    0 -0.00000000000E+00 -0.00000000000E+00 -0.45593999997E+02  0.45594000000E+02  0.51100000000E-03 0.  1.
    9900012    2    1    2    0    0  0.18404228717E+02  0.35208113375E+02  0.86508893450E+01  0.50528871031E+02  0.30000033985E+02 0.  0.
         12    1    1    2    0    0 -0.18404228717E+02 -0.35208113375E+02 -0.86508893450E+01  0.40659128969E+02  0.00000000000E+00 0. -1.
         11    1    3    3    0    0  0.78280714543E+01  0.92758957097E+01  0.13072738177E+02  0.17838649826E+02  0.51100000000E-03 0. -1.
        -11    1    3    3    0    0  0.58899652848E+01  0.26623965828E+02 -0.19251827068E+01  0.27335573456E+02  0.51100000000E-03 0.  1.
         12    1    3    3    0    0  0.46861919777E+01 -0.69174816277E+00 -0.24966661248E+01  0.53546477486E+01  0.00000000000E+00 0. -1.
</event>
<event>
 7    1  0.5972636E-013  0.5052886E+02  0.7816164E-02  0.1300439E+00
        -11   -1    0    0    0    0  0.00000000000E+00  0.00000000000E+00  0.45593999997E+02  0.45594000000E+02  0.51100000000E-03 0.  1.
         11   -1    0    0    0    0 -0.00000000000E+00 -0.00000000000E+00 -0.45593999997E+02  0.45594000000E+02  0.51100000000E-03 0. -1.
    9900012    2    1    2    0    0 -0.10518210159E+02 -0.28343809501E+02  0.27187526104E+02  0.50528857638E+02  0.29999993276E+02 0.  0.
         12    1    1    2    0    0  0.10518210159E+02  0.28343809501E+02 -0.27187526104E+02  0.40659142362E+02  0.00000000000E+00 0. -1.
         11    1    3    3    0    0 -0.97585967977E+00 -0.13049530036E+02  0.18841829206E+01  0.13220918343E+02  0.51100000000E-03 0. -1.
        -11    1    3    3    0    0 -0.86102324985E+01 -0.22458518777E+01  0.22122614738E+02  0.23845126073E+02  0.51100000000E-03 0.  1.
        -12    1    3    3    0    0 -0.93211798103E+00 -0.13048427587E+02  0.31807284458E+01  0.13462813222E+02  0.00000000000E+00 0.  1.
</event>
<event>
 7    1  0.5972636E-013  0.5052888E+02  0.7816164E-02  0.1300439E+00
        -11   -1    0    0    0    0  0.00000000000E+00  0.00000000000E+00  0.45593999997E+02  0.45594000000E+02  0.51100000000E-03 0.  1.
         11   -1    0    0    0    0 -0.00000000000E+00 -0.00000000000E+00 -0.45593999997E+02  0.45594000000E+02  0.51100000000E-03 0. -1.
    9900012    2    1    2    0    0 -0.38207534762E+02  0.21982895661E+01 -0.13730120377E+02  0.50528875622E+02  0.30000047940E+02 0.  0.
         12    1    1    2    0    0  0.38207534762E+02 -0.21982895661E+01  0.13730120377E+02  0.40659124378E+02  0.00000000000E+00 0. -1.
         11    1    3    3    0    0 -0.17440563501E+02 -0.99823086698E+01 -0.94177359517E+01  0.22192645005E+02  0.51100000000E-03 0. -1.
        -11    1    3    3    0    0 -0.22532980064E+02  0.10209896087E+02 -0.56440217833E+01  0.25373847774E+02  0.51100000000E-03 0.  1.
         12    1    3    3    0    0  0.17660088032E+01  0.19707021493E+01  0.13316373578E+01  0.29623828427E+01  0.00000000000E+00 0. -1.
</event>
<event>
 7    1  0.5972636E-013  0.5052887E+02  0.7816164E-02  0.1300439E+00
        -11   -1    0    0    0    0  0.00000000000E+00  0.00000000000E+00  0.45593999997E+02  0.45594000000E+02  0.51100000000E-03 0.  1.
         11   -1    0    0    0    0 -0.00000000000E+00 -0.00000000000E+00 -0.45593999997E+02  0.45594000000E+02  0.51100000000E-03 0. -1.
    9900012    2    1    2    0    0  0.38981494397E+02  0.27294070735E+01  0.11232035839E+02  0.50528865756E+02  0.30000017953E+02 0.  0.
         12    1    1    2    0    0 -0.38981494397E+02 -0.27294070735E+01 -0.11232035839E+02  0.40659134244E+02  0.00000000000E+00 0. -1.
         11    1    3    3    0    0  0.10020383469E+02  0.11494494758E+02  0.74407556036E+01  0.16967508327E+02  0.51100000000E-03 0. -1.
        -11    1    3    3    0    0  0.24580101734E+02 -0.52745499215E+01  0.81889864960E+01  0.26439776440E+02  0.51100000000E-03 0.  1.
         12    1    3    3    0    0  0.43810091937E+01 -0.34905377630E+01 -0.43977062607E+01  0.71215809892E+01  0.00000000000E+00 0. -1.
</event>
<event>
 7    1  0.5972636E-013  0.5052886E+02  0.7816164E-02  0.1300439E+00
        -11   -1    0    0    0    0  0.00000000000E+00  0.00000000000E+00  0.45593999997E+02  0.45594000000E+02  0.51100000000E-03 0.  1.
         11   -1    0    0    0    0 -0.00000000000E+00 -0.00000000000E+00 -0.45593999997E+02  0.45594000000E+02  0.51100000000E-03 0. -1.
    9900012    2    1    2    0    0  0.14226140482E+02 -0.31277911635E+02  0.21736480889E+02  0.50528862888E+02  0.30000009234E+02 0.  0.
         12    1    1    2    0    0 -0.14226140482E+02  0.31277911635E+02 -0.21736480889E+02  0.40659137112E+02  0.00000000000E+00 0. -1.
         11    1    3    3    0    0  0.87939979507E+01 -0.18804823441E-01  0.62915747479E+01  0.10812893537E+02  0.51100000000E-03 0. -1.
        -11    1    3    3    0    0  0.90149632971E+01 -0.31511280792E+02  0.15163772474E+02  0.36113299161E+02  0.51100000000E-03 0.  1.
        -12    1    3    3    0    0 -0.35828207658E+01  0.25217398055E+00  0.28113366695E+00  0.36026701896E+01  0.00000000000E+00 0.  1.
</event>
<event>
 7    1  0.5972636E-013  0.5052885E+02  0.7816164E-02  0.1300439E+00
        -11   -1    0    0    0    0  0.00000000000E+00  0.00000000000E+00  0.45593999997E+02  0.45594000000E+02  0.51100000000E-03 0.  1.
         11   -1    0    0    0    0 -0.00000000000E+00 -0.00000000000E+00 -0.45593999997E+02  0.45594000000E+02  0.51100000000E-03 0. -1.
    9900012    2    1    2    0    0  0.70825928203E+01 -0.34217699777E+02  0.20788272241E+02  0.50528851437E+02  0.29999974429E+02 0.  0.
         12    1    1    2    0    0 -0.70825928203E+01  0.34217699777E+02 -0.20788272241E+02  0.40659148563E+02  0.00000000000E+00 0. -1.
         11    1    3    3    0    0  0.45924229595E+01 -0.24190354705E+02  0.18681705014E+02  0.30907437808E+02  0.51100000000E-03 0. -1.
        -11    1    3    3    0    0  0.53035878494E+01 -0.13259013962E+02 -0.10206875450E+01  0.14316818734E+02  0.51100000000E-03 0.  1.
         12    1    3    3    0    0 -0.28134179886E+01  0.32316688903E+01  0.31272547721E+01  0.53045948954E+01  0.00000000000E+00 0. -1.
</event>
<event>
 7    1  0.5972636E-013  0.5052886E+02  0.7816164E-02  0.1300439E+00
        -11   -1    0    0    0    0  0.00000000000E+00  0.00000000000E+00  0.45593999997E+02  0.45594000000E+02  0.51100000000E-03 0.  1.
         11   -1    0    0    0    0 -0.00000000000E+00 -0.00000000000E+00 -0.45593999997E+02  0.45594000000E+02  0.51100000000E-03 0. -1.
    9900012    2    1    2    0    0  0.21379810873E+02  0.34582829084E+02 -0.31248906172E+00  0.50528855520E+02  0.29999986838E+02 0.  0.
         12    1    1    2    0    0 -0.21379810873E+02 -0.34582829084E+02  0.31248906172E+00  0.40659144480E+02  0.00000000000E+00 0. -1.
         11    1    3    3    0    0  0.92005979743E+01  0.14700644264E+02 -0.14134386802E+02  0.22372769954E+02  0.51100000000E-03 0. -1.
        -11    1    3    3    0    0  0.55234164042E+01  0.71586518640E+01  0.96030983989E+01  0.13189917528E+02  0.51100000000E-03 0.  1.
         12    1    3    3    0    0  0.66557964946E+01  0.12723532956E+02  0.42187993411E+01  0.14966168038E+02  0.00000000000E+00 0. -1.
</event>
<event>
 7    1  0.5972636E-013  0.5052886E+02  0.7816164E-02  0.1300439E+00
        -11   -1    0    0    0    0  0.00000000000E+00  0.00000000000E+00  0.45593999997E+02  0.45594000000E+02  0.51100000000E-03 0. -1.
         11   -1    0    0    0    0 -0.00000000000E+00 -0.00000000000E+00 -0.45593999997E+02  0.45594000000E+02  0.51100000000E-03 0.  1.
    9900012    2    1    2    0    0  0.27399375499E+02  0.27374971136E+02  0.12371373406E+02  0.50528859547E+02  0.29999999078E+02 0.  0.
         12    1    1    2    0    0 -0.27399375499E+02 -0.27374971136E+02 -0.12371373406E+02  0.40659140453E+02  0.00000000000E+00 0. -1.
         11    1    3    3    0    0 -0.14867693064E+01 -0.20432423671E+01 -0.12227798109E+01  0.28072251545E+01  0.51100000000E-03 0. -1.
        -11    1    3    3    0    0  0.31005059376E+02  0.27591684989E+02  0.15535340979E+02  0.44316606448E+02  0.51100000000E-03 0.  1.
        -12    1    3    3    0    0 -0.21189145707E+01  0.18265285141E+01 -0.19411877627E+01  0.34050279443E+01  0.00000000000E+00 0.  1.
</event>
<event>
 7    1  0.5972636E-013  0.5052886E+02  0.7816164E-02  0.1300439E+00
        -11   -1    0    0    0    0  0.00000000000E+00  0.00000000000E+00  0.45593999997E+02  0.45594000000E+02  0.51100000000E-03 0.  1.
         11   -1    0    0    0    0 -0.00000000000E+00 -0.00000000000E+00 -0.45593999997E+02  0.45594000000E+02  0.51100000000E-03 0. -1.
    9900012    2    1    2    0    0  0.10810854793E+02 -0.10619705336E+02  0.37729475711E+02  0.50528855147E+02  0.29999985704E+02 0.  0.
         12    1    1    2    0    0 -0.10810854793E+02  0.10619705336E+02 -0.37729475711E+02  0.40659144853E+02  0.00000000000E+00 0. -1.
         11    1    3    3    0    0  0.15740803792E+01 -0.14715372444E+02  0.25294172866E+02  0.29305547196E+02  0.51100000000E-03 0. -1.
        -11    1    3    3    0    0  0.62734706415E+01  0.54557537585E+01  0.14949620839E+02  0.17105930154E+02  0.51100000000E-03 0.  1.
         12    1    3    3    0    0  0.29633037721E+01 -0.13600866509E+01 -0.25143179942E+01  0.41173777966E+01  0.00000000000E+00 0. -1.
</event>
<event>
 7    1  0.5972636E-013  0.5052883E+02  0.7816164E-02  0.1300439E+00
        -11   -1    0    0    0    0  0.00000000000E+00  0.00000000000E+00  0.45593999997E+02  0.45594000000E+02  0.51100000000E-03 0.  1.
         11   -1    0    0    0    0 -0.00000000000E+00 -0.00000000000E+00 -0.45593999997E+02  0.45594000000E+02  0.51100000000E-03 0. -1.
    9900012    2    1    2    0    0  0.42206786085E+00 -0.17667132016E+02  0.36617790849E+02  0.50528827583E+02  0.29999901922E+02 0.  0.
         12    1    1    2    0    0 -0.42206786085E+00  0.17667132016E+02 -0.36617790849E+02  0.40659172417E+02  0.00000000000E+00 0. -1.
         11    1    3    3    0    0 -0.51259092761E+01 -0.97469935347E+01 -0.12180990169E+01  0.11079828263E+02  0.51100000000E-03 0. -1.
        -11    1    3    3    0    0  0.33410021301E+01 -0.82704868852E+01  0.29529514524E+02  0.30847292861E+02  0.51100000000E-03 0.  1.
         12    1    3    3    0    0  0.22069750068E+01  0.35034840416E+00  0.83063753418E+01  0.86017064588E+01  0.00000000000E+00 0. -1.
</event>
<event>
 7    1  0.5972636E-013  0.5052886E+02  0.7816164E-02  0.1300439E+00
        -11   -1    0    0    0    0  0.00000000000E+00  0.00000000000E+00  0.45593999997E+02  0.45594000000E+02  0.51100000000E-03 0.  1.
         11   -1    0    0    0    0 -0.00000000000E+00 -0.00000000000E+00 -0.45593999997E+02  0.45594000000E+02  0.51100000000E-03 0. -1.
    9900012    2    1    2    0    0 -0.31288994025E+02 -0.13306816024E+02  0.22295583965E+02  0.50528861247E+02  0.30000004246E+02 0.  0.
         12    1    1    2    0    0  0.31288994025E+02  0.13306816024E+02 -0.22295583965E+02  0.40659138753E+02  0.00000000000E+00 0. -1.
         11    1    3    3    0    0 -0.13051089180E+02  0.71421290965E+01  0.64423898821E+01  0.16212505188E+02  0.51100000000E-03 0.  1.
        -11    1    3    3    0    0 -0.82497713627E+01 -0.16581621515E+02  0.14498087677E+02  0.23520277340E+02  0.51100000000E-03 0. -1.
         12    1    3    3    0    0 -0.99881334823E+01 -0.38673236059E+01  0.13551064056E+01  0.10796078719E+02  0.00000000000E+00 0. -1.
</event>
<event>
 7    1  0.5972636E-013  0.5052886E+02  0.7816164E-02  0.1300439E+00
        -11   -1    0    0    0    0  0.00000000000E+00  0.00000000000E+00  0.45593999997E+02  0.45594000000E+02  0.51100000000E-03 0.  1.
         11   -1    0    0    0    0 -0.00000000000E+00 -0.00000000000E+00 -0.45593999997E+02  0.45594000000E+02  0.51100000000E-03 0. -1.
    9900012    2    1    2    0    0 -0.14490034602E+02  0.40030438056E+01  0.37778033814E+02  0.50528864479E+02  0.30000014070E+02 0.  0.
         12    1    1    2    0    0  0.14490034602E+02 -0.40030438056E+01 -0.37778033814E+02  0.40659135521E+02  0.00000000000E+00 0. -1.
         11    1    3    3    0    0  0.19489475600E+01  0.63488831282E+00 -0.17572648728E+01  0.26998999714E+01  0.51100000000E-03 0. -1.
        -11    1    3    3    0    0 -0.17786400707E+02 -0.44909602841E+01  0.22582734938E+02  0.29094753684E+02  0.51100000000E-03 0.  1.
        -12    1    3    3    0    0  0.13474185454E+01  0.78591157769E+01  0.16952563749E+02  0.18734210824E+02  0.00000000000E+00 0.  1.
</event>
<event>
 7    1  0.5972636E-013  0.5052886E+02  0.7816164E-02  0.1300439E+00
        -11   -1    0    0    0    0  0.00000000000E+00  0.00000000000E+00  0.45593999997E+02  0.45594000000E+02  0.51100000000E-03 0.  1.
         11   -1    0    0    0    0 -0.00000000000E+00 -0.00000000000E+00 -0.45593999997E+02  0.45594000000E+02  0.51100000000E-03 0. -1.
    9900012    2    1    2    0    0 -0.21443961114E+02 -0.10718271409E+02  0.32839624877E+02  0.50528858687E+02  0.29999996464E+02 0.  0.
         12    1    1    2    0    0  0.21443961114E+02  0.10718271409E+02 -0.32839624877E+02  0.40659141313E+02  0.00000000000E+00 0. -1.
         11    1    3    3    0    0 -0.59419189959E+01 -0.19515746937E+01 -0.13000915114E+01  0.63879013250E+01  0.51100000000E-03 0. -1.
        -11    1    3    3    0    0 -0.47164255949E+01 -0.12825512536E+02  0.27826707681E+02  0.31001033899E+02  0.51100000000E-03 0.  1.
        -12    1    3    3    0    0 -0.10785616524E+02  0.40588158210E+01  0.63130087078E+01  0.13139923463E+02  0.00000000000E+00 0.  1.
</event>
<event>
 7    1  0.5972636E-013  0.5052886E+02  0.7816164E-02  0.1300439E+00
        -11   -1    0    0    0    0  0.00000000000E+00  0.00000000000E+00  0.45593999997E+02  0.45594000000E+02  0.51100000000E-03 0. -1.
         11   -1    0    0    0    0 -0.00000000000E+00 -0.00000000000E+00 -0.45593999997E+02  0.45594000000E+02  0.51100000000E-03 0.  1.
    9900012    2    1    2    0    0  0.43501277515E+01 -0.21278884089E+02 -0.34372239200E+02  0.50528863915E+02  0.30000012357E+02 0.  0.
         12    1    1    2    0    0 -0.43501277515E+01  0.21278884089E+02  0.34372239200E+02  0.40659136085E+02  0.00000000000E+00 0. -1.
         11    1    3    3    0    0  0.12167607277E+02 -0.59923782739E+01 -0.18648378192E+02  0.23059082238E+02  0.51100000000E-03 0. -1.
        -11    1    3    3    0    0 -0.46335163667E+01 -0.14179976512E+02 -0.42505343407E+01  0.15511552154E+02  0.51100000000E-03 0.  1.
         12    1    3    3    0    0 -0.31839631588E+01 -0.11065293035E+01 -0.11473326668E+02  0.11958229523E+02  0.00000000000E+00 0. -1.
</event>
<event>
 7    1  0.5972636E-013  0.5052887E+02  0.7816164E-02  0.1300439E+00
        -11   -1    0    0    0    0  0.00000000000E+00  0.00000000000E+00  0.45593999997E+02  0.45594000000E+02  0.51100000000E-03 0. -1.
         11   -1    0    0    0    0 -0.00000000000E+00 -0.00000000000E+00 -0.45593999997E+02  0.45594000000E+02  0.51100000000E-03 0.  1.
    9900012    2    1    2    0    0  0.25364522720E+02  0.31495185545E+02  0.42260301504E+01  0.50528867493E+02  0.30000023233E+02 0.  0.
         12    1    1    2    0    0 -0.25364522720E+02 -0.31495185545E+02 -0.42260301504E+01  0.40659132507E+02  0.00000000000E+00 0. -1.
         11    1    3    3    0    0  0.32309919890E+01  0.22718991967E+02  0.11332105177E+02  0.25593134104E+02  0.51100000000E-03 0. -1.
        -11    1    3    3    0    0  0.69437457926E+01  0.27766735687E+01 -0.32557786283E+01  0.81563237109E+01  0.51100000000E-03 0.  1.
         12    1    3    3    0    0  0.15189784939E+02  0.59995200092E+01 -0.38502963982E+01  0.16779409679E+02  0.00000000000E+00 0. -1.
</event>
<event>
 7    1  0.5972636E-013  0.5052885E+02  0.7816164E-02  0.1300439E+00
        -11   -1    0    0    0    0  0.00000000000E+00  0.00000000000E+00  0.45593999997E+02  0.45594000000E+02  0.51100000000E-03 0.  1.
         11   -1    0    0    0    0 -0.00000000000E+00 -0.00000000000E+00 -0.45593999997E+02  0.45594000000E+02  0.51100000000E-03 0. -1.
    9900012    2    1    2    0    0 -0.76418482008E+01  0.39153937576E+02  0.78573272574E+01  0.50528852649E+02  0.29999978113E+02 0.  0.
         12    1    1    2    0    0  0.76418482008E+01 -0.39153937576E+02 -0.78573272574E+01  0.40659147351E+02  0.00000000000E+00 0. -1.
         11    1    3    3    0    0  0.10947036797E+02  0.12108734722E+02  0.93189279571E+00  0.16350152772E+02  0.51100000000E-03 0. -1.
        -11    1    3    3    0    0 -0.45993372691E+01  0.29585240452E+01 -0.30372058497E-01  0.54687924229E+01  0.51100000000E-03 0.  1.
         12    1    3    3    0    0 -0.13989547729E+02  0.24086678809E+02  0.69558065202E+01  0.28709907455E+02  0.00000000000E+00 0. -1.
</event>
<event>
 7    1  0.5972636E-013  0.5052886E+02  0.7816164E-02  0.1300439E+00
        -11   -1    0    0    0    0  0.00000000000E+00  0.00000000000E+00  0.45593999997E+02  0.45594000000E+02  0.51100000000E-03 0.  1.
         11   -1    0    0    0    0 -0.00000000000E+00 -0.00000000000E+00 -0.45593999997E+02  0.45594000000E+02  0.51100000000E-03 0. -1.
    9900012    2    1    2    0    0  0.30983166301E+02 -0.63991673331E+01  0.25539378414E+02  0.50528858514E+02  0.29999995940E+02 0.  0.
         12    1    1    2    0    0 -0.30983166301E+02  0.63991673331E+01 -0.25539378414E+02  0.40659141486E+02  0.00000000000E+00 0. -1.
         11    1    3    3    0    0 -0.40014153622E+00 -0.81954218567E+01  0.79642870221E+00  0.82437462114E+01  0.51100000000E-03 0. -1.
        -11    1    3    3    0    0  0.29527525199E+02 -0.21193971591E+01  0.23441590373E+02  0.37760756721E+02  0.51100000000E-03 0.  1.
        -12    1    3    3    0    0  0.18557826382E+01  0.39156516827E+01  0.13013593388E+01  0.45243555817E+01  0.00000000000E+00 0.  1.
</event>
<event>
 7    1  0.6263521E-013  0.5052887E+02  0.7816164E-02  0.1300439E+00
        -11   -1    0    0    0    0  0.00000000000E+00  0.00000000000E+00  0.45593999997E+02  0.45594000000E+02  0.51100000000E-03 0.  1.
         11   -1    0    0    0    0 -0.00000000000E+00 -0.00000000000E+00 -0.45593999997E+02  0.45594000000E+02  0.51100000000E-03 0. -1.
    9900012    2    1    2    0    0 -0.15547250186E+02  0.36241171867E+02  0.99007852144E+01  0.50528867268E+02  0.30000022548E+02 0.  0.
         12    1    1    2    0    0  0.15547250186E+02 -0.36241171867E+02 -0.99007852144E+01  0.40659132732E+02  0.00000000000E+00 0. -1.
         11    1    3    3    0    0 -0.15324602332E+01 -0.20149247422E+01 -0.26382929006E+01  0.36563568991E+01  0.51100000000E-03 0. -1.
        -11    1    3    3    0    0 -0.30623218963E+01  0.29191507147E+02  0.24790246292E+01  0.29456195753E+02  0.51100000000E-03 0.  1.
        -12    1    3    3    0    0 -0.10952468056E+02  0.90645894630E+01  0.10060053486E+02  0.17416314616E+02  0.00000000000E+00 0.  1.
</event>
<event>
 7    1  0.5972636E-013  0.5052889E+02  0.7816164E-02  0.1300439E+00
        -11   -1    0    0    0    0  0.00000000000E+00  0.00000000000E+00  0.45593999997E+02  0.45594000000E+02  0.51100000000E-03 0.  1.
         11   -1    0    0    0    0 -0.00000000000E+00 -0.00000000000E+00 -0.45593999997E+02  0.45594000000E+02  0.51100000000E-03 0. -1.
    9900012    2    1    2    0    0  0.29044478296E+02  0.26882059148E+02  0.93239839264E+01  0.50528886633E+02  0.30000081409E+02 0.  0.
         12    1    1    2    0    0 -0.29044478296E+02 -0.26882059148E+02 -0.93239839264E+01  0.40659113367E+02  0.00000000000E+00 0. -1.
         11    1    3    3    0    0 -0.15385532647E+01 -0.66165096157E+00 -0.38965134072E+01  0.42411961918E+01  0.51100000000E-03 0. -1.
        -11    1    3    3    0    0  0.25429119470E+02  0.29217487254E+02  0.10077216122E+02  0.40023142849E+02  0.51100000000E-03 0.  1.
         12    1    3    3    0    0  0.51539120904E+01 -0.16737771436E+01  0.31432812114E+01  0.62645475923E+01  0.00000000000E+00 0. -1.
</event>
<event>
 7    1  0.5972636E-013  0.5052886E+02  0.7816164E-02  0.1300439E+00
        -11   -1    0    0    0    0  0.00000000000E+00  0.00000000000E+00  0.45593999997E+02  0.45594000000E+02  0.51100000000E-03 0.  1.
         11   -1    0    0    0    0 -0.00000000000E+00 -0.00000000000E+00 -0.45593999997E+02  0.45594000000E+02  0.51100000000E-03 0. -1.
    9900012    2    1    2    0    0 -0.27794020988E+02 -0.29653320515E+02 -0.11570088220E+01  0.50528859703E+02  0.29999999553E+02 0.  0.
         12    1    1    2    0    0  0.27794020988E+02  0.29653320515E+02  0.11570088220E+01  0.40659140297E+02  0.00000000000E+00 0. -1.
         11    1    3    3    0    0  0.26215167410E+01 -0.38626929858E+01  0.87996655805E+00  0.47504829786E+01  0.51100000000E-03 0. -1.
        -11    1    3    3    0    0 -0.32241469324E+02 -0.16561711943E+02 -0.52760914990E+00  0.36250255424E+02  0.51100000000E-03 0.  1.
        -12    1    3    3    0    0  0.18259315948E+01 -0.92289155864E+01 -0.15093662302E+01  0.95281213000E+01  0.00000000000E+00 0.  1.
</event>
<event>
 7    1  0.5972636E-013  0.5052886E+02  0.7816164E-02  0.1300439E+00
        -11   -1    0    0    0    0  0.00000000000E+00  0.00000000000E+00  0.45593999997E+02  0.45594000000E+02  0.51100000000E-03 0.  1.
         11   -1    0    0    0    0 -0.00000000000E+00 -0.00000000000E+00 -0.45593999997E+02  0.45594000000E+02  0.51100000000E-03 0. -1.
    9900012    2    1    2    0    0 -0.22408215820E+01  0.12339662123E+02  0.38676570497E+02  0.50528860215E+02  0.30000001110E+02 0.  0.
         12    1    1    2    0    0  0.22408215820E+01 -0.12339662123E+02 -0.38676570497E+02  0.40659139785E+02  0.00000000000E+00 0. -1.
         11    1    3    3    0    0  0.20559181428E+01 -0.82657755012E+01  0.91764766289E+01  0.12520286244E+02  0.51100000000E-03 0. -1.
        -11    1    3    3    0    0 -0.78271081434E+01  0.13082079241E+02  0.15588974990E+02  0.21804140906E+02  0.51100000000E-03 0.  1.
         12    1    3    3    0    0  0.35303684185E+01  0.75233583831E+01  0.13911118878E+02  0.16204433065E+02  0.00000000000E+00 0. -1.
</event>
<event>
 7    1  0.5972636E-013  0.5052886E+02  0.7816164E-02  0.1300439E+00
        -11   -1    0    0    0    0  0.00000000000E+00  0.00000000000E+00  0.45593999997E+02  0.45594000000E+02  0.51100000000E-03 0. -1.
         11   -1    0    0    0    0 -0.00000000000E+00 -0.00000000000E+00 -0.45593999997E+02  0.45594000000E+02  0.51100000000E-03 0.  1.
    9900012    2    1    2    0    0  0.32564151969E+02 -0.82617513614E+01 -0.22901642069E+02  0.50528859103E+02  0.29999997730E+02 0.  0.
         12    1    1    2    0    0 -0.32564151969E+02  0.82617513614E+01  0.22901642069E+02  0.40659140897E+02  0.00000000000E+00 0. -1.
         11    1    3    3    0    0  0.44901851638E+01 -0.31073970759E+01  0.32762177363E+00  0.54703761918E+01  0.51100000000E-03 0. -1.
        -11    1    3    3    0    0  0.17146444640E+02 -0.24908135526E+01 -0.27930385998E+02  0.32868087535E+02  0.51100000000E-03 0.  1.
        -12    1    3    3    0    0  0.10927522165E+02 -0.26635407330E+01  0.47011221556E+01  0.12190395376E+02  0.00000000000E+00 0.  1.
</event>
<event>
 7    1  0.5972636E-013  0.5052885E+02  0.7816164E-02  0.1300439E+00
        -11   -1    0    0    0    0  0.00000000000E+00  0.00000000000E+00  0.45593999997E+02  0.45594000000E+02  0.51100000000E-03 0. -1.
         11   -1    0    0    0    0 -0.00000000000E+00 -0.00000000000E+00 -0.45593999997E+02  0.45594000000E+02  0.51100000000E-03 0.  1.
    9900012    2    1    2    0    0  0.33838019883E+02 -0.12157886978E+02  0.18982640393E+02  0.50528850456E+02  0.29999971445E+02 0.  0.
         12    1    1    2    0    0 -0.33838019883E+02  0.12157886978E+02 -0.18982640393E+02  0.40659149544E+02  0.00000000000E+00 0. -1.
         11    1    3    3    0    0  0.76179244741E+01 -0.16610450671E+02  0.69776780620E+01  0.19560875139E+02  0.51100000000E-03 0. -1.
        -11    1    3    3    0    0  0.26106192178E+02  0.34610003484E+01  0.13161431905E+02  0.29440364867E+02  0.51100000000E-03 0.  1.
        -12    1    3    3    0    0  0.11390323145E+00  0.99156334490E+00 -0.11564695742E+01  0.15276104507E+01  0.00000000000E+00 0.  1.
</event>
<event>
 7    1  0.5972636E-013  0.5052888E+02  0.7816164E-02  0.1300439E+00
        -11   -1    0    0    0    0  0.00000000000E+00  0.00000000000E+00  0.45593999997E+02  0.45594000000E+02  0.51100000000E-03 0.  1.
         11   -1    0    0    0    0 -0.00000000000E+00 -0.00000000000E+00 -0.45593999997E+02  0.45594000000E+02  0.51100000000E-03 0. -1.
    9900012    2    1    2    0    0  0.32779229652E+02 -0.20951984243E+02  0.11819498718E+02  0.50528879373E+02  0.30000059341E+02 0.  0.
         12    1    1    2    0    0 -0.32779229652E+02  0.20951984243E+02 -0.11819498718E+02  0.40659120627E+02  0.00000000000E+00 0. -1.
         11    1    3    3    0    0  0.42715692581E+01  0.47426691791E+01 -0.45514902627E+01  0.78393417289E+01  0.51100000000E-03 0. -1.
        -11    1    3    3    0    0  0.22990963156E+02 -0.20048905948E+02  0.87920120742E+01  0.31746535136E+02  0.51100000000E-03 0.  1.
         12    1    3    3    0    0  0.55166972381E+01 -0.56457474733E+01  0.75789769061E+01  0.10943002508E+02  0.00000000000E+00 0. -1.
</event>
<event>
 7    1  0.5972636E-013  0.5052888E+02  0.7816164E-02  0.1300439E+00
        -11   -1    0    0    0    0  0.00000000000E+00  0.00000000000E+00  0.45593999997E+02  0.45594000000E+02  0.51100000000E-03 0.  1.
         11   -1    0    0    0    0 -0.00000000000E+00 -0.00000000000E+00 -0.45593999997E+02  0.45594000000E+02  0.51100000000E-03 0. -1.
    9900012    2    1    2    0    0  0.24154972262E+02 -0.13654322130E+02  0.29719706328E+02  0.50528878735E+02  0.30000057403E+02 0.  0.
         12    1    1    2    0    0 -0.24154972262E+02  0.13654322130E+02 -0.29719706328E+02  0.40659121265E+02  0.00000000000E+00 0. -1.
         11    1    3    3    0    0  0.12094436348E+01 -0.32506890281E+01 -0.33421896750E+01  0.48166342137E+01  0.51100000000E-03 0. -1.
        -11    1    3    3    0    0  0.26262955889E+02 -0.95117073656E+01  0.30898615320E+02  0.41652609258E+02  0.51100000000E-03 0.  1.
        -12    1    3    3    0    0 -0.33174272618E+01 -0.89192573661E+00  0.21632806825E+01  0.40596352630E+01  0.00000000000E+00 0.  1.
</event>
<event>
 7    1  0.5972636E-013  0.5052888E+02  0.7816164E-02  0.1300439E+00
        -11   -1    0    0    0    0  0.00000000000E+00  0.00000000000E+00  0.45593999997E+02  0.45594000000E+02  0.51100000000E-03 0. -1.
         11   -1    0    0    0    0 -0.00000000000E+00 -0.00000000000E+00 -0.45593999997E+02  0.45594000000E+02  0.51100000000E-03 0.  1.
    9900012    2    1    2    0    0 -0.11406470078E+02 -0.36211107339E+02 -0.14553774054E+02  0.50528878101E+02  0.30000055477E+02 0.  0.
         12    1    1    2    0    0  0.11406470078E+02  0.36211107339E+02  0.14553774054E+02  0.40659121899E+02  0.00000000000E+00 0. -1.
         11    1    3    3    0    0 -0.11702082148E+02 -0.81261651765E+00 -0.59069273105E+01  0.13133577682E+02  0.51100000000E-03 0. -1.
        -11    1    3    3    0    0 -0.15126460383E+00 -0.65598683090E+00  0.11169371971E+01  0.13041275498E+01  0.51100000000E-03 0.  1.
         12    1    3    3    0    0  0.44687667389E+00 -0.34742503991E+02 -0.97637839401E+01  0.36091172870E+02  0.00000000000E+00 0. -1.
</event>
<event>
 7    1  0.5972636E-013  0.5052886E+02  0.7816164E-02  0.1300439E+00
        -11   -1    0    0    0    0  0.00000000000E+00  0.00000000000E+00  0.45593999997E+02  0.45594000000E+02  0.51100000000E-03 0.  1.
         11   -1    0    0    0    0 -0.00000000000E+00 -0.00000000000E+00 -0.45593999997E+02  0.45594000000E+02  0.51100000000E-03 0. -1.
    9900012    2    1    2    0    0 -0.48190471129E+00  0.32519802931E+02  0.24400735095E+02  0.50528859724E+02  0.29999999617E+02 0.  0.
         12    1    1    2    0    0  0.48190471129E+00 -0.32519802931E+02 -0.24400735095E+02  0.40659140276E+02  0.00000000000E+00 0. -1.
         11    1    3    3    0    0  0.20462501294E+01 -0.44989012128E+01  0.10830634787E+01  0.50596717753E+01  0.51100000000E-03 0. -1.
        -11    1    3    3    0    0 -0.59190707015E+01  0.27887463462E+02  0.13171917896E+02  0.31404544856E+02  0.51100000000E-03 0.  1.
        -12    1    3    3    0    0  0.33909158608E+01  0.91312406818E+01  0.10145753721E+02  0.14064643093E+02  0.00000000000E+00 0.  1.
</event>
<event>
 7    1  0.5972636E-013  0.5052885E+02  0.7816164E-02  0.1300439E+00
        -11   -1    0    0    0    0  0.00000000000E+00  0.00000000000E+00  0.45593999997E+02  0.45594000000E+02  0.51100000000E-03 0. -1.
         11   -1    0    0    0    0 -0.00000000000E+00 -0.00000000000E+00 -0.45593999997E+02  0.45594000000E+02  0.51100000000E-03 0.  1.
    9900012    2    1    2    0    0  0.39383011509E+02 -0.95377925582E+01  0.33429097457E+01  0.50528854313E+02  0.29999983171E+02 0.  0.
         12    1    1    2    0    0 -0.39383011509E+02  0.95377925582E+01 -0.33429097457E+01  0.40659145687E+02  0.00000000000E+00 0. -1.
         11    1    3    3    0    0  0.18966176843E+02  0.23902421011E+01  0.83639159588E+01  0.20865862354E+02  0.51100000000E-03 0. -1.
        -11    1    3    3    0    0  0.20795126305E+02 -0.14702956884E+02 -0.67811264062E+01  0.26355225189E+02  0.51100000000E-03 0.  1.
        -12    1    3    3    0    0 -0.37829163847E+00  0.27749222245E+01  0.17601201931E+01  0.33077667708E+01  0.00000000000E+00 0.  1.
</event>
<event>
 7    1  0.5972636E-013  0.5052896E+02  0.7816164E-02  0.1300438E+00
        -11   -1    0    0    0    0  0.00000000000E+00  0.00000000000E+00  0.45593999997E+02  0.45594000000E+02  0.51100000000E-03 0. -1.
         11   -1    0    0    0    0 -0.00000000000E+00 -0.00000000000E+00 -0.45593999997E+02  0.45594000000E+02  0.51100000000E-03 0.  1.
    9900012    2    1    2    0    0 -0.12140465604E+02  0.36672547682E+01 -0.38630529072E+02  0.50528961164E+02  0.30000307954E+02 0.  0.
         12    1    1    2    0    0  0.12140465604E+02 -0.36672547682E+01  0.38630529072E+02  0.40659038836E+02  0.00000000000E+00 0. -1.
         11    1    3    3    0    0 -0.80766574631E+01  0.83585474546E+01 -0.66933379466E+01  0.13412624071E+02  0.51100000000E-03 0. -1.
        -11    1    3    3    0    0 -0.88860061651E+01 -0.60491571739E+01 -0.29782149647E+02  0.31662751711E+02  0.51100000000E-03 0.  1.
        -12    1    3    3    0    0  0.48221980242E+01  0.13578644874E+01 -0.21550414793E+01  0.54535853829E+01  0.00000000000E+00 0.  1.
</event>
<event>
 7    1  0.5972636E-013  0.5052887E+02  0.7816164E-02  0.1300439E+00
        -11   -1    0    0    0    0  0.00000000000E+00  0.00000000000E+00  0.45593999997E+02  0.45594000000E+02  0.51100000000E-03 0. -1.
         11   -1    0    0    0    0 -0.00000000000E+00 -0.00000000000E+00 -0.45593999997E+02  0.45594000000E+02  0.51100000000E-03 0.  1.
    9900012    2    1    2    0    0  0.14341558086E+00  0.20898151423E+02 -0.34877097439E+02  0.50528865397E+02  0.30000016860E+02 0.  0.
         12    1    1    2    0    0 -0.14341558086E+00 -0.20898151423E+02  0.34877097439E+02  0.40659134603E+02  0.00000000000E+00 0. -1.
         11    1    3    3    0    0  0.10313173899E+02  0.95928114252E+01 -0.23788718822E+02  0.27645736206E+02  0.51100000000E-03 0.  1.
        -11    1    3    3    0    0 -0.75651906765E+01  0.14198733435E+02 -0.94578546657E+01  0.18662453115E+02  0.51100000000E-03 0. -1.
        -12    1    3    3    0    0 -0.26045676412E+01 -0.28933934377E+01 -0.16305239512E+01  0.42206760760E+01  0.00000000000E+00 0.  1.
</event>
<event>
 7    1  0.5972636E-013  0.5052885E+02  0.7816164E-02  0.1300439E+00
        -11   -1    0    0    0    0  0.00000000000E+00  0.00000000000E+00  0.45593999997E+02  0.45594000000E+02  0.51100000000E-03 0.  1.
         11   -1    0    0    0    0 -0.00000000000E+00 -0.00000000000E+00 -0.45593999997E+02  0.45594000000E+02  0.51100000000E-03 0. -1.
    9900012    2    1    2    0    0 -0.40309247116E+01  0.36932647629E+02 -0.16519608192E+02  0.50528852570E+02  0.29999977872E+02 0.  0.
         12    1    1    2    0    0  0.40309247116E+01 -0.36932647629E+02  0.16519608192E+02  0.40659147430E+02  0.00000000000E+00 0. -1.
         11    1    3    3    0    0  0.34440925393E+01  0.22439404994E+01 -0.36665195965E+01  0.55082128315E+01  0.51100000000E-03 0. -1.
        -11    1    3    3    0    0 -0.13050442957E+02  0.90109868986E+01 -0.96141417138E+01  0.18545718304E+02  0.51100000000E-03 0.  1.
        -12    1    3    3    0    0  0.55754257061E+01  0.25677720231E+02 -0.32389468818E+01  0.26474921434E+02  0.00000000000E+00 0.  1.
</event>
<event>
 7    1  0.5972636E-013  0.5052885E+02  0.7816164E-02  0.1300439E+00
        -11   -1    0    0    0    0  0.00000000000E+00  0.00000000000E+00  0.45593999997E+02  0.45594000000E+02  0.51100000000E-03 0. -1.
         11   -1    0    0    0    0 -0.00000000000E+00 -0.00000000000E+00 -0.45593999997E+02  0.45594000000E+02  0.51100000000E-03 0.  1.
    9900012    2    1    2    0    0 -0.32692198511E+02 -0.16597275960E+02 -0.17576028347E+02  0.50528853609E+02  0.29999981030E+02 0.  0.
         12    1    1    2    0    0  0.32692198511E+02  0.16597275960E+02  0.17576028347E+02  0.40659146391E+02  0.00000000000E+00 0. -1.
         11    1    3    3    0    0 -0.22176488746E+02 -0.14829684559E+01 -0.19956743358E+02  0.29870846226E+02  0.51100000000E-03 0. -1.
        -11    1    3    3    0    0  0.51273437961E-01  0.28096780295E+00 -0.15498516093E+01  0.15759480143E+01  0.51100000000E-03 0.  1.
         12    1    3    3    0    0 -0.10566983203E+02 -0.15395275307E+02  0.39305666197E+01  0.19082059368E+02  0.00000000000E+00 0. -1.
</event>
<event>
 7    1  0.5972636E-013  0.5052886E+02  0.7816164E-02  0.1300439E+00
        -11   -1    0    0    0    0  0.00000000000E+00  0.00000000000E+00  0.45593999997E+02  0.45594000000E+02  0.51100000000E-03 0.  1.
         11   -1    0    0    0    0 -0.00000000000E+00 -0.00000000000E+00 -0.45593999997E+02  0.45594000000E+02  0.51100000000E-03 0. -1.
    9900012    2    1    2    0    0  0.17710817335E+02  0.32595249992E+02  0.16644584704E+02  0.50528861141E+02  0.30000003925E+02 0.  0.
         12    1    1    2    0    0 -0.17710817335E+02 -0.32595249992E+02 -0.16644584704E+02  0.40659138859E+02  0.00000000000E+00 0. -1.
         11    1    3    3    0    0  0.87553279329E+00  0.85749022070E+00 -0.26025723594E+00  0.12528292943E+01  0.51100000000E-03 0. -1.
        -11    1    3    3    0    0 -0.28600605529E+01  0.15222621684E+02 -0.41665738444E+01  0.16039591490E+02  0.51100000000E-03 0.  1.
        -12    1    3    3    0    0  0.19695345095E+02  0.16515138088E+02  0.21071415785E+02  0.33236440358E+02  0.00000000000E+00 0.  1.
</event>
<event>
 7    1  0.5972636E-013  0.5052886E+02  0.7816164E-02  0.1300439E+00
        -11   -1    0    0    0    0  0.00000000000E+00  0.00000000000E+00  0.45593999997E+02  0.45594000000E+02  0.51100000000E-03 0. -1.
         11   -1    0    0    0    0 -0.00000000000E+00 -0.00000000000E+00 -0.45593999997E+02  0.45594000000E+02  0.51100000000E-03 0.  1.
    9900012    2    1    2    0    0  0.25003054158E+02  0.99813886724E+01 -0.30469407823E+02  0.50528860189E+02  0.30000001030E+02 0.  0.
         12    1    1    2    0    0 -0.25003054158E+02 -0.99813886724E+01  0.30469407823E+02  0.40659139811E+02  0.00000000000E+00 0. -1.
         11    1    3    3    0    0  0.17307094127E+02  0.17277022482E+02 -0.16818905001E+02  0.29680070395E+02  0.51100000000E-03 0.  1.
        -11    1    3    3    0    0  0.15480260157E+01 -0.29948985388E+01  0.16904315015E+01  0.37713871089E+01  0.51100000000E-03 0. -1.
         12    1    3    3    0    0  0.61479340160E+01 -0.43007352711E+01 -0.15340934324E+02  0.17077402685E+02  0.00000000000E+00 0. -1.
</event>
<event>
 7    1  0.5972636E-013  0.5052887E+02  0.7816164E-02  0.1300439E+00
        -11   -1    0    0    0    0  0.00000000000E+00  0.00000000000E+00  0.45593999997E+02  0.45594000000E+02  0.51100000000E-03 0.  1.
         11   -1    0    0    0    0 -0.00000000000E+00 -0.00000000000E+00 -0.45593999997E+02  0.45594000000E+02  0.51100000000E-03 0. -1.
    9900012    2    1    2    0    0 -0.15720627450E+02  0.45070255191E+01  0.37225174177E+02  0.50528868197E+02  0.30000025371E+02 0.  0.
         12    1    1    2    0    0  0.15720627450E+02 -0.45070255191E+01 -0.37225174177E+02  0.40659131803E+02  0.00000000000E+00 0. -1.
         11    1    3    3    0    0 -0.11962938620E+02  0.86362059267E+00  0.26366906076E+02  0.28966730524E+02  0.51100000000E-03 0. -1.
        -11    1    3    3    0    0 -0.75389451383E+01  0.34191103621E+01 -0.16950258272E+01  0.84498001327E+01  0.51100000000E-03 0.  1.
        -12    1    3    3    0    0  0.37812563081E+01  0.22429456434E+00  0.12553293928E+02  0.13112337540E+02  0.00000000000E+00 0.  1.
</event>
<event>
 7    1  0.5972636E-013  0.5052885E+02  0.7816164E-02  0.1300439E+00
        -11   -1    0    0    0    0  0.00000000000E+00  0.00000000000E+00  0.45593999997E+02  0.45594000000E+02  0.51100000000E-03 0.  1.
         11   -1    0    0    0    0 -0.00000000000E+00 -0.00000000000E+00 -0.45593999997E+02  0.45594000000E+02  0.51100000000E-03 0. -1.
    9900012    2    1    2    0    0 -0.20497861538E+02 -0.32968395687E+02  0.12086727474E+02  0.50528850687E+02  0.29999972147E+02 0.  0.
         12    1    1    2    0    0  0.20497861538E+02  0.32968395687E+02 -0.12086727474E+02  0.40659149313E+02  0.00000000000E+00 0. -1.
         11    1    3    3    0    0 -0.38213964807E+01 -0.43847442553E+01 -0.92156542243E+01  0.10897583966E+02  0.51100000000E-03 0. -1.
        -11    1    3    3    0    0 -0.13872856597E+02 -0.20553360444E+02  0.17268809627E+02  0.30217686243E+02  0.51100000000E-03 0.  1.
         12    1    3    3    0    0 -0.28036084609E+01 -0.80302909885E+01  0.40335720714E+01  0.94135804780E+01  0.00000000000E+00 0. -1.
</event>
<event>
 7    1  0.5972636E-013  0.5052886E+02  0.7816164E-02  0.1300439E+00
        -11   -1    0    0    0    0  0.00000000000E+00  0.00000000000E+00  0.45593999997E+02  0.45594000000E+02  0.51100000000E-03 0.  1.
         11   -1    0    0    0    0 -0.00000000000E+00 -0.00000000000E+00 -0.45593999997E+02  0.45594000000E+02  0.51100000000E-03 0. -1.
    9900012    2    1    2    0    0 -0.16870854367E+02 -0.36710165959E+02  0.45720896169E+01  0.50528855699E+02  0.29999987383E+02 0.  0.
         12    1    1    2    0    0  0.16870854367E+02  0.36710165959E+02 -0.45720896169E+01  0.40659144301E+02  0.00000000000E+00 0. -1.
         11    1    3    3    0    0 -0.25103796602E+01 -0.13686778093E+02  0.15206822182E+02  0.20612553013E+02  0.51100000000E-03 0.  1.
        -11    1    3    3    0    0 -0.11598257155E+01 -0.72998956234E+01 -0.35345623287E+01  0.81930948316E+01  0.51100000000E-03 0. -1.
         12    1    3    3    0    0 -0.13200648991E+02 -0.15723492243E+02 -0.71001702360E+01  0.21723207854E+02  0.00000000000E+00 0. -1.
</event>
<event>
 7    1  0.5972636E-013  0.5052885E+02  0.7816164E-02  0.1300439E+00
        -11   -1    0    0    0    0  0.00000000000E+00  0.00000000000E+00  0.45593999997E+02  0.45594000000E+02  0.51100000000E-03 0. -1.
         11   -1    0    0    0    0 -0.00000000000E+00 -0.00000000000E+00 -0.45593999997E+02  0.45594000000E+02  0.51100000000E-03 0.  1.
    9900012    2    1    2    0    0  0.73209433621E+01  0.31681375804E+02 -0.24410257607E+02  0.50528850218E+02  0.29999970722E+02 0.  0.
         12    1    1    2    0    0 -0.73209433621E+01 -0.31681375804E+02  0.24410257607E+02  0.40659149782E+02  0.00000000000E+00 0. -1.
         11    1    3    3    0    0 -0.18923942786E+01 -0.11261378138E+01  0.16512904412E+01  0.27524721368E+01  0.51100000000E-03 0. -1.
        -11    1    3    3    0    0  0.13380684271E+01  0.31967942386E+02 -0.19325717808E+02  0.37379448050E+02  0.51100000000E-03 0.  1.
        -12    1    3    3    0    0  0.78752692136E+01  0.83957123244E+00 -0.67358302400E+01  0.10396930031E+02  0.00000000000E+00 0.  1.
</event>
<event>
 7    1  0.5972636E-013  0.5052888E+02  0.7816164E-02  0.1300439E+00
        -11   -1    0    0    0    0  0.00000000000E+00  0.00000000000E+00  0.45593999997E+02  0.45594000000E+02  0.51100000000E-03 0.  1.
         11   -1    0    0    0    0 -0.00000000000E+00 -0.00000000000E+00 -0.45593999997E+02  0.45594000000E+02  0.51100000000E-03 0. -1.
    9900012    2    1    2    0    0 -0.34288827353E+02 -0.12070533398E+02  0.18213805791E+02  0.50528878279E+02  0.30000056017E+02 0.  0.
         12    1    1    2    0    0  0.34288827353E+02  0.12070533398E+02 -0.18213805791E+02  0.40659121721E+02  0.00000000000E+00 0. -1.
         11    1    3    3    0    0 -0.10395155739E+02  0.41883592125E+01  0.16839496232E+02  0.20227957122E+02  0.51100000000E-03 0. -1.
        -11    1    3    3    0    0 -0.10361851318E+02 -0.11805302427E+02 -0.14613711303E+01  0.15775573967E+02  0.51100000000E-03 0.  1.
         12    1    3    3    0    0 -0.13531820296E+02 -0.44535901836E+01  0.28356806892E+01  0.14525347191E+02  0.00000000000E+00 0. -1.
</event>
<event>
 7    1  0.5972636E-013  0.5052882E+02  0.7816164E-02  0.1300439E+00
        -11   -1    0    0    0    0  0.00000000000E+00  0.00000000000E+00  0.45593999997E+02  0.45594000000E+02  0.51100000000E-03 0. -1.
         11   -1    0    0    0    0 -0.00000000000E+00 -0.00000000000E+00 -0.45593999997E+02  0.45594000000E+02  0.51100000000E-03 0.  1.
    9900012    2    1    2    0    0 -0.37481997223E+02 -0.66948527465E+01 -0.14263512031E+02  0.50528819676E+02  0.29999877887E+02 0.  0.
         12    1    1    2    0    0  0.37481997223E+02  0.66948527465E+01  0.14263512031E+02  0.40659180324E+02  0.00000000000E+00 0. -1.
         11    1    3    3    0    0 -0.30356060008E+02 -0.12803962912E+01 -0.19866922009E+00  0.30383700624E+02  0.51100000000E-03 0. -1.
        -11    1    3    3    0    0 -0.27943320647E+01 -0.39446401676E+00 -0.13152891764E+02  0.13452228647E+02  0.51100000000E-03 0.  1.
        -12    1    3    3    0    0 -0.43316051503E+01 -0.50199924385E+01 -0.91195104658E+00  0.66928904049E+01  0.00000000000E+00 0.  1.
</event>
<event>
 7    1  0.5972636E-013  0.5052886E+02  0.7816164E-02  0.1300439E+00
        -11   -1    0    0    0    0  0.00000000000E+00  0.00000000000E+00  0.45593999997E+02  0.45594000000E+02  0.51100000000E-03 0. -1.
         11   -1    0    0    0    0 -0.00000000000E+00 -0.00000000000E+00 -0.45593999997E+02  0.45594000000E+02  0.51100000000E-03 0.  1.
    9900012    2    1    2    0    0  0.16608170661E+02 -0.30913659925E+02  0.20534838680E+02  0.50528864467E+02  0.30000014035E+02 0.  0.
         12    1    1    2    0    0 -0.16608170661E+02  0.30913659925E+02 -0.20534838680E+02  0.40659135533E+02  0.00000000000E+00 0. -1.
         11    1    3    3    0    0  0.46097485505E+01 -0.26865317444E+02  0.15847518956E+02  0.31529968608E+02  0.51100000000E-03 0. -1.
        -11    1    3    3    0    0  0.14301883611E+02 -0.76612855425E+00  0.29208034122E+01  0.14617178956E+02  0.51100000000E-03 0.  1.
        -12    1    3    3    0    0 -0.23034615011E+01 -0.32822139262E+01  0.17665163120E+01  0.43817169038E+01  0.00000000000E+00 0.  1.
</event>
<event>
 7    1  0.5972636E-013  0.5052886E+02  0.7816164E-02  0.1300439E+00
        -11   -1    0    0    0    0  0.00000000000E+00  0.00000000000E+00  0.45593999997E+02  0.45594000000E+02  0.51100000000E-03 0. -1.
         11   -1    0    0    0    0 -0.00000000000E+00 -0.00000000000E+00 -0.45593999997E+02  0.45594000000E+02  0.51100000000E-03 0.  1.
    9900012    2    1    2    0    0 -0.25071766198E+02 -0.13688879640E+02 -0.28934181080E+02  0.50528859320E+02  0.29999998389E+02 0.  0.
         12    1    1    2    0    0  0.25071766198E+02  0.13688879640E+02  0.28934181080E+02  0.40659140680E+02  0.00000000000E+00 0. -1.
         11    1    3    3    0    0 -0.13508562746E+02  0.76919353555E+00 -0.37982676712E+01  0.14053460916E+02  0.51100000000E-03 0. -1.
        -11    1    3    3    0    0 -0.39274766021E+01 -0.16042033747E+02 -0.96283160536E+01  0.19117436792E+02  0.51100000000E-03 0.  1.
        -12    1    3    3    0    0 -0.76357268498E+01  0.15839605712E+01 -0.15507597355E+02  0.17357961612E+02  0.00000000000E+00 0.  1.
</event>
<event>
 7    1  0.5972636E-013  0.5052886E+02  0.7816164E-02  0.1300439E+00
        -11   -1    0    0    0    0  0.00000000000E+00  0.00000000000E+00  0.45593999997E+02  0.45594000000E+02  0.51100000000E-03 0.  1.
         11   -1    0    0    0    0 -0.00000000000E+00 -0.00000000000E+00 -0.45593999997E+02  0.45594000000E+02  0.51100000000E-03 0. -1.
    9900012    2    1    2    0    0 -0.36727435125E+02 -0.52797905975E+01  0.16624832985E+02  0.50528858944E+02  0.29999997246E+02 0.  0.
         12    1    1    2    0    0  0.36727435125E+02  0.52797905975E+01 -0.16624832985E+02  0.40659141056E+02  0.00000000000E+00 0. -1.
         11    1    3    3    0    0  0.41578574789E+01 -0.17974605933E+01  0.38458383223E+01  0.59421474285E+01  0.51100000000E-03 0. -1.
        -11    1    3    3    0    0 -0.15768611772E+02 -0.68074288625E+01  0.30329962599E+01  0.17441022663E+02  0.51100000000E-03 0.  1.
         12    1    3    3    0    0 -0.25116680832E+02  0.33250988583E+01  0.97459984032E+01  0.27145688853E+02  0.00000000000E+00 0. -1.
</event>
<event>
 7    1  0.5972636E-013  0.5052887E+02  0.7816164E-02  0.1300439E+00
        -11   -1    0    0    0    0  0.00000000000E+00  0.00000000000E+00  0.45593999997E+02  0.45594000000E+02  0.51100000000E-03 0.  1.
         11   -1    0    0    0    0 -0.00000000000E+00 -0.00000000000E+00 -0.45593999997E+02  0.45594000000E+02  0.51100000000E-03 0. -1.
    9900012    2    1    2    0    0  0.25573593351E+02  0.81459371411E+01  0.30541773624E+02  0.50528869354E+02  0.30000028889E+02 0.  0.
         12    1    1    2    0    0 -0.25573593351E+02 -0.81459371411E+01 -0.30541773624E+02  0.40659130646E+02  0.00000000000E+00 0. -1.
         11    1    3    3    0    0  0.93538033567E+01  0.36045123545E+00  0.24185018487E+01  0.96681287632E+01  0.51100000000E-03 0. -1.
        -11    1    3    3    0    0  0.12781780435E+02  0.16006709646E+02  0.21931386170E+02  0.30009571213E+02  0.51100000000E-03 0.  1.
        -12    1    3    3    0    0  0.34380095595E+01 -0.82212237405E+01  0.61918856053E+01  0.10851169378E+02  0.00000000000E+00 0.  1.
</event>
<event>
 7    1  0.5972636E-013  0.5052887E+02  0.7816164E-02  0.1300439E+00
        -11   -1    0    0    0    0  0.00000000000E+00  0.00000000000E+00  0.45593999997E+02  0.45594000000E+02  0.51100000000E-03 0.  1.
         11   -1    0    0    0    0 -0.00000000000E+00 -0.00000000000E+00 -0.45593999997E+02  0.45594000000E+02  0.51100000000E-03 0. -1.
    9900012    2    1    2    0    0 -0.31075366405E+02 -0.44482263428E+01  0.25839881495E+02  0.50528873220E+02  0.30000040641E+02 0.  0.
         12    1    1    2    0    0  0.31075366405E+02  0.44482263428E+01 -0.25839881495E+02  0.40659126780E+02  0.00000000000E+00 0. -1.
         11    1    3    3    0    0 -0.27975897744E+01  0.42952990516E+01 -0.24769299170E+01  0.56930909498E+01  0.51100000000E-03 0. -1.
        -11    1    3    3    0    0 -0.14767108089E+02 -0.12878390850E+02  0.21689926589E+02  0.29229665546E+02  0.51100000000E-03 0.  1.
        -12    1    3    3    0    0 -0.13510668542E+02  0.41348654557E+01  0.66268848223E+01  0.15606116725E+02  0.00000000000E+00 0.  1.
</event>
<event>
 7    1  0.5972636E-013  0.5052885E+02  0.7816164E-02  0.1300439E+00
        -11   -1    0    0    0    0  0.00000000000E+00  0.00000000000E+00  0.45593999997E+02  0.45594000000E+02  0.51100000000E-03 0.  1.
         11   -1    0    0    0    0 -0.00000000000E+00 -0.00000000000E+00 -0.45593999997E+02  0.45594000000E+02  0.51100000000E-03 0. -1.
    9900012    2    1    2    0    0 -0.10511027562E+02 -0.11077551189E+02  0.37682526616E+02  0.50528847858E+02  0.29999963549E+02 0.  0.
         12    1    1    2    0    0  0.10511027562E+02  0.11077551189E+02 -0.37682526616E+02  0.40659152142E+02  0.00000000000E+00 0. -1.
         11    1    3    3    0    0  0.77405033509E+01  0.81407608749E+00  0.11004436600E+02  0.13478714224E+02  0.51100000000E-03 0. -1.
        -11    1    3    3    0    0 -0.10728724318E+02 -0.11013168720E+02  0.24909452557E+02  0.29272448440E+02  0.51100000000E-03 0.  1.
        -12    1    3    3    0    0 -0.75228065953E+01 -0.87845855721E+00  0.17686374587E+01  0.77776851933E+01  0.00000000000E+00 0.  1.
</event>
<event>
 7    1  0.5972636E-013  0.5052887E+02  0.7816164E-02  0.1300439E+00
        -11   -1    0    0    0    0  0.00000000000E+00  0.00000000000E+00  0.45593999997E+02  0.45594000000E+02  0.51100000000E-03 0. -1.
         11   -1    0    0    0    0 -0.00000000000E+00 -0.00000000000E+00 -0.45593999997E+02  0.45594000000E+02  0.51100000000E-03 0.  1.
    9900012    2    1    2    0    0  0.18055183984E+02  0.13518827460E+02 -0.33829226768E+02  0.50528868820E+02  0.30000027266E+02 0.  0.
         12    1    1    2    0    0 -0.18055183984E+02 -0.13518827460E+02  0.33829226768E+02  0.40659131180E+02  0.00000000000E+00 0. -1.
         11    1    3    3    0    0  0.13368422150E+02  0.13651945198E+02 -0.34809728767E+01  0.19421830267E+02  0.51100000000E-03 0. -1.
        -11    1    3    3    0    0  0.19399176377E+01 -0.24978386613E+01 -0.15863073606E+02  0.16175276904E+02  0.51100000000E-03 0.  1.
         12    1    3    3    0    0  0.27468441961E+01  0.23647209231E+01 -0.14485180285E+02  0.14931761650E+02  0.00000000000E+00 0. -1.
</event>
<event>
 7    1  0.5972636E-013  0.5052887E+02  0.7816164E-02  0.1300439E+00
        -11   -1    0    0    0    0  0.00000000000E+00  0.00000000000E+00  0.45593999997E+02  0.45594000000E+02  0.51100000000E-03 0.  1.
         11   -1    0    0    0    0 -0.00000000000E+00 -0.00000000000E+00 -0.45593999997E+02  0.45594000000E+02  0.51100000000E-03 0. -1.
    9900012    2    1    2    0    0  0.27605613713E+01  0.39051334143E+02 -0.10978961478E+02  0.50528868276E+02  0.30000025611E+02 0.  0.
         12    1    1    2    0    0 -0.27605613713E+01 -0.39051334143E+02  0.10978961478E+02  0.40659131724E+02  0.00000000000E+00 0. -1.
         11    1    3    3    0    0 -0.57795751756E+01  0.20978537862E+02 -0.24063512978E-01  0.21760126823E+02  0.51100000000E-03 0. -1.
        -11    1    3    3    0    0  0.78797550638E+01  0.19644045437E+02 -0.13931286770E+02  0.25338899193E+02  0.51100000000E-03 0.  1.
         12    1    3    3    0    0  0.66038148310E+00 -0.15712491551E+01  0.29763888052E+01  0.34298422603E+01  0.00000000000E+00 0. -1.
</event>
<event>
 7    1  0.5972636E-013  0.5052886E+02  0.7816164E-02  0.1300439E+00
        -11   -1    0    0    0    0  0.00000000000E+00  0.00000000000E+00  0.45593999997E+02  0.45594000000E+02  0.51100000000E-03 0.  1.
         11   -1    0    0    0    0 -0.00000000000E+00 -0.00000000000E+00 -0.45593999997E+02  0.45594000000E+02  0.51100000000E-03 0. -1.
    9900012    2    1    2    0    0 -0.33062856077E+02  0.18710311742E+02  0.14489228492E+02  0.50528856382E+02  0.29999989458E+02 0.  0.
         12    1    1    2    0    0  0.33062856077E+02 -0.18710311742E+02 -0.14489228492E+02  0.40659143618E+02  0.00000000000E+00 0. -1.
         11    1    3    3    0    0 -0.14541709032E+02 -0.23140516102E+01  0.52886481412E+01  0.15645636320E+02  0.51100000000E-03 0. -1.
        -11    1    3    3    0    0 -0.22323554045E+02  0.17064719430E+02  0.84532861467E+01  0.29342865595E+02  0.51100000000E-03 0.  1.
        -12    1    3    3    0    0  0.38024070000E+01  0.39596439224E+01  0.74729420405E+00  0.55403544664E+01  0.00000000000E+00 0.  1.
</event>
<event>
 7    1  0.5972636E-013  0.5052884E+02  0.7816164E-02  0.1300439E+00
        -11   -1    0    0    0    0  0.00000000000E+00  0.00000000000E+00  0.45593999997E+02  0.45594000000E+02  0.51100000000E-03 0. -1.
         11   -1    0    0    0    0 -0.00000000000E+00 -0.00000000000E+00 -0.45593999997E+02  0.45594000000E+02  0.51100000000E-03 0.  1.
    9900012    2    1    2    0    0 -0.15677797110E+02 -0.29709767675E+02 -0.22906412626E+02  0.50528839200E+02  0.29999937233E+02 0.  0.
         12    1    1    2    0    0  0.15677797110E+02  0.29709767675E+02  0.22906412626E+02  0.40659160800E+02  0.00000000000E+00 0. -1.
         11    1    3    3    0    0 -0.23709416206E+01 -0.29232553918E+01  0.55071691963E+01  0.66705096561E+01  0.51100000000E-03 0. -1.
        -11    1    3    3    0    0 -0.39060929418E+01 -0.11013374949E+02 -0.21047555358E+02  0.24073877474E+02  0.51100000000E-03 0.  1.
        -12    1    3    3    0    0 -0.94007625476E+01 -0.15773137334E+02 -0.73660264644E+01  0.19784452070E+02  0.00000000000E+00 0.  1.
</event>
<event>
 7    1  0.5972636E-013  0.5052886E+02  0.7816164E-02  0.1300439E+00
        -11   -1    0    0    0    0  0.00000000000E+00  0.00000000000E+00  0.45593999997E+02  0.45594000000E+02  0.51100000000E-03 0.  1.
         11   -1    0    0    0    0 -0.00000000000E+00 -0.00000000000E+00 -0.45593999997E+02  0.45594000000E+02  0.51100000000E-03 0. -1.
    9900012    2    1    2    0    0  0.20273832480E+02 -0.26023992026E+02 -0.23767399350E+02  0.50528859376E+02  0.29999998559E+02 0.  0.
         12    1    1    2    0    0 -0.20273832480E+02  0.26023992026E+02  0.23767399350E+02  0.40659140624E+02  0.00000000000E+00 0. -1.
         11    1    3    3    0    0  0.14174203935E+02 -0.24269946046E+02 -0.25282664106E+02  0.37804119390E+02  0.51100000000E-03 0. -1.
        -11    1    3    3    0    0  0.23584773865E+01 -0.15634727645E+01  0.61474482015E+01  0.67674206548E+01  0.51100000000E-03 0.  1.
        -12    1    3    3    0    0  0.37411511582E+01 -0.19057321529E+00 -0.46321834461E+01  0.59573193314E+01  0.00000000000E+00 0.  1.
</event>
<event>
 7    1  0.5972636E-013  0.5052886E+02  0.7816164E-02  0.1300439E+00
        -11   -1    0    0    0    0  0.00000000000E+00  0.00000000000E+00  0.45593999997E+02  0.45594000000E+02  0.51100000000E-03 0. -1.
         11   -1    0    0    0    0 -0.00000000000E+00 -0.00000000000E+00 -0.45593999997E+02  0.45594000000E+02  0.51100000000E-03 0.  1.
    9900012    2    1    2    0    0  0.13668004427E+02 -0.67190049373E+00 -0.38287074655E+02  0.50528857351E+02  0.29999992404E+02 0.  0.
         12    1    1    2    0    0 -0.13668004427E+02  0.67190049373E+00  0.38287074655E+02  0.40659142649E+02  0.00000000000E+00 0. -1.
         11    1    3    3    0    0  0.10247313058E+02 -0.68943952948E+01 -0.14247733267E+01  0.12432622035E+02  0.51100000000E-03 0. -1.
        -11    1    3    3    0    0  0.41617489467E+01  0.13291156765E+01 -0.22060558912E+02  0.22488996478E+02  0.51100000000E-03 0.  1.
         12    1    3    3    0    0 -0.74105757671E+00  0.48933791246E+01 -0.14801742416E+02  0.15607238838E+02  0.00000000000E+00 0. -1.
</event>
<event>
 7    1  0.5972636E-013  0.5052886E+02  0.7816164E-02  0.1300439E+00
        -11   -1    0    0    0    0  0.00000000000E+00  0.00000000000E+00  0.45593999997E+02  0.45594000000E+02  0.51100000000E-03 0. -1.
         11   -1    0    0    0    0 -0.00000000000E+00 -0.00000000000E+00 -0.45593999997E+02  0.45594000000E+02  0.51100000000E-03 0.  1.
    9900012    2    1    2    0    0 -0.19578439820E+02  0.24303312485E+02 -0.26061458131E+02  0.50528857074E+02  0.29999991563E+02 0.  0.
         12    1    1    2    0    0  0.19578439820E+02 -0.24303312485E+02  0.26061458131E+02  0.40659142926E+02  0.00000000000E+00 0. -1.
         11    1    3    3    0    0 -0.61715102877E+01 -0.19107779812E+01  0.19838792719E+01  0.67582829884E+01  0.51100000000E-03 0. -1.
        -11    1    3    3    0    0 -0.13416608773E+02  0.26595089975E+02 -0.29705009124E+02  0.42067704585E+02  0.51100000000E-03 0.  1.
        -12    1    3    3    0    0  0.96792400052E-02 -0.38099950908E+00  0.16596717214E+01  0.17028695007E+01  0.00000000000E+00 0.  1.
</event>
<event>
 7    1  0.5972636E-013  0.5052887E+02  0.7816164E-02  0.1300439E+00
        -11   -1    0    0    0    0  0.00000000000E+00  0.00000000000E+00  0.45593999997E+02  0.45594000000E+02  0.51100000000E-03 0.  1.
         11   -1    0    0    0    0 -0.00000000000E+00 -0.00000000000E+00 -0.45593999997E+02  0.45594000000E+02  0.51100000000E-03 0. -1.
    9900012    2    1    2    0    0  0.28910232195E+02 -0.28000332432E+02 -0.57745009207E+01  0.50528868150E+02  0.30000025230E+02 0.  0.
         12    1    1    2    0    0 -0.28910232195E+02  0.28000332432E+02  0.57745009207E+01  0.40659131850E+02  0.00000000000E+00 0. -1.
         11    1    3    3    0    0  0.86381576273E+01 -0.37611201038E+01 -0.83242702650E+01  0.12572082856E+02  0.51100000000E-03 0. -1.
        -11    1    3    3    0    0  0.19648597402E+02 -0.20340572908E+02  0.96088081362E+01  0.29868637066E+02  0.51100000000E-03 0.  1.
        -12    1    3    3    0    0  0.62347716526E+00 -0.38986394202E+01 -0.70590387920E+01  0.80881482288E+01  0.00000000000E+00 0.  1.
</event>
<event>
 7    1  0.5972636E-013  0.5052885E+02  0.7816164E-02  0.1300439E+00
        -11   -1    0    0    0    0  0.00000000000E+00  0.00000000000E+00  0.45593999997E+02  0.45594000000E+02  0.51100000000E-03 0.  1.
         11   -1    0    0    0    0 -0.00000000000E+00 -0.00000000000E+00 -0.45593999997E+02  0.45594000000E+02  0.51100000000E-03 0. -1.
    9900012    2    1    2    0    0 -0.38887817692E+02 -0.10728581945E+02  0.50795705362E+01  0.50528845161E+02  0.29999955352E+02 0.  0.
         12    1    1    2    0    0  0.38887817692E+02  0.10728581945E+02 -0.50795705362E+01  0.40659154839E+02  0.00000000000E+00 0. -1.
         11    1    3    3    0    0 -0.24265454931E+01 -0.48531108869E+00 -0.85628785989E+01  0.89132788604E+01  0.51100000000E-03 0. -1.
        -11    1    3    3    0    0 -0.34933237746E+02 -0.79497565397E+01  0.10288172460E+02  0.37274337301E+02  0.51100000000E-03 0.  1.
         12    1    3    3    0    0 -0.15280344531E+01 -0.22935143170E+01  0.33542766748E+01  0.43412289992E+01  0.00000000000E+00 0. -1.
</event>
<event>
 7    1  0.5972636E-013  0.5052886E+02  0.7816164E-02  0.1300439E+00
        -11   -1    0    0    0    0  0.00000000000E+00  0.00000000000E+00  0.45593999997E+02  0.45594000000E+02  0.51100000000E-03 0.  1.
         11   -1    0    0    0    0 -0.00000000000E+00 -0.00000000000E+00 -0.45593999997E+02  0.45594000000E+02  0.51100000000E-03 0. -1.
    9900012    2    1    2    0    0 -0.85009332997E+01 -0.38949516292E+02  0.79896791576E+01  0.50528860075E+02  0.30000000685E+02 0.  0.
         12    1    1    2    0    0  0.85009332997E+01  0.38949516292E+02 -0.79896791576E+01  0.40659139925E+02  0.00000000000E+00 0. -1.
         11    1    3    3    0    0 -0.40089614298E+01  0.18073031679E+01  0.67746146553E+00  0.44493899340E+01  0.51100000000E-03 0. -1.
        -11    1    3    3    0    0  0.45867440487E+01 -0.28196388314E+02  0.10163978358E+02  0.30321296002E+02  0.51100000000E-03 0.  1.
        -12    1    3    3    0    0 -0.90787159186E+01 -0.12560431146E+02 -0.28517606660E+01  0.15758174139E+02  0.00000000000E+00 0.  1.
</event>
<event>
 7    1  0.5972636E-013  0.5052885E+02  0.7816164E-02  0.1300439E+00
        -11   -1    0    0    0    0  0.00000000000E+00  0.00000000000E+00  0.45593999997E+02  0.45594000000E+02  0.51100000000E-03 0. -1.
         11   -1    0    0    0    0 -0.00000000000E+00 -0.00000000000E+00 -0.45593999997E+02  0.45594000000E+02  0.51100000000E-03 0.  1.
    9900012    2    1    2    0    0  0.29528224411E+02  0.12479100053E+02 -0.25010442167E+02  0.50528853521E+02  0.29999980762E+02 0.  0.
         12    1    1    2    0    0 -0.29528224411E+02 -0.12479100053E+02  0.25010442167E+02  0.40659146479E+02  0.00000000000E+00 0. -1.
         11    1    3    3    0    0  0.25915894834E+02 -0.26852371202E+01 -0.15845318029E+02  0.30494560287E+02  0.51100000000E-03 0. -1.
        -11    1    3    3    0    0  0.44252157596E+01  0.13945840372E+02 -0.47504601791E+01  0.15382973392E+02  0.51100000000E-03 0.  1.
         12    1    3    3    0    0 -0.81288618179E+00  0.12184968007E+01 -0.44146639588E+01  0.46513198414E+01  0.00000000000E+00 0. -1.
</event>
<event>
 7    1  0.5972636E-013  0.5052886E+02  0.7816164E-02  0.1300439E+00
        -11   -1    0    0    0    0  0.00000000000E+00  0.00000000000E+00  0.45593999997E+02  0.45594000000E+02  0.51100000000E-03 0.  1.
         11   -1    0    0    0    0 -0.00000000000E+00 -0.00000000000E+00 -0.45593999997E+02  0.45594000000E+02  0.51100000000E-03 0. -1.
    9900012    2    1    2    0    0  0.74346610678E+01  0.25874417631E+02  0.30469750480E+02  0.50528863669E+02  0.30000011608E+02 0.  0.
         12    1    1    2    0    0 -0.74346610678E+01 -0.25874417631E+02 -0.30469750480E+02  0.40659136331E+02  0.00000000000E+00 0. -1.
         11    1    3    3    0    0  0.11599888121E+02  0.24246857920E+01  0.19564318481E+02  0.22873545058E+02  0.51100000000E-03 0. -1.
        -11    1    3    3    0    0 -0.86712148590E+00  0.20020871373E+02  0.11071852329E+02  0.22894827024E+02  0.51100000000E-03 0.  1.
        -12    1    3    3    0    0 -0.32981055670E+01  0.34288604654E+01 -0.16642033109E+00  0.47604915869E+01  0.00000000000E+00 0.  1.
</event>
<event>
 7    1  0.5972636E-013  0.5052899E+02  0.7816164E-02  0.1300438E+00
        -11   -1    0    0    0    0  0.00000000000E+00  0.00000000000E+00  0.45593999997E+02  0.45594000000E+02  0.51100000000E-03 0.  1.
         11   -1    0    0    0    0 -0.00000000000E+00 -0.00000000000E+00 -0.45593999997E+02  0.45594000000E+02  0.51100000000E-03 0. -1.
    9900012    2    1    2    0    0 -0.18792613893E+02 -0.11611124402E+02  0.34134654312E+02  0.50528989045E+02  0.30000392698E+02 0.  0.
         12    1    1    2    0    0  0.18792613893E+02  0.11611124402E+02 -0.34134654312E+02  0.40659010955E+02  0.00000000000E+00 0. -1.
         11    1    3    3    0    0  0.46609495651E+01 -0.30042627719E+01  0.32544020895E+01  0.64297106367E+01  0.51100000000E-03 0. -1.
        -11    1    3    3    0    0 -0.14329246067E+02  0.32240836182E+01  0.22778882049E+02  0.27103495636E+02  0.51100000000E-03 0.  1.
        -12    1    3    3    0    0 -0.91243173918E+01 -0.11830945249E+02  0.81013701734E+01  0.16995782772E+02  0.00000000000E+00 0.  1.
</event>
<event>
 7    1  0.5972636E-013  0.5052885E+02  0.7816164E-02  0.1300439E+00
        -11   -1    0    0    0    0  0.00000000000E+00  0.00000000000E+00  0.45593999997E+02  0.45594000000E+02  0.51100000000E-03 0.  1.
         11   -1    0    0    0    0 -0.00000000000E+00 -0.00000000000E+00 -0.45593999997E+02  0.45594000000E+02  0.51100000000E-03 0. -1.
    9900012    2    1    2    0    0 -0.32198183680E+01  0.64531741199E+00  0.40526322467E+02  0.50528850014E+02  0.29999970103E+02 0.  0.
         12    1    1    2    0    0  0.32198183680E+01 -0.64531741199E+00 -0.40526322467E+02  0.40659149986E+02  0.00000000000E+00 0. -1.
         11    1    3    3    0    0  0.49751493265E+01 -0.28621659659E+01 -0.13863138972E+01  0.59047414270E+01  0.51100000000E-03 0. -1.
        -11    1    3    3    0    0 -0.68647364041E+01  0.79532225948E+01  0.25816142155E+02  0.27872056824E+02  0.51100000000E-03 0.  1.
        -12    1    3    3    0    0 -0.13302312904E+01 -0.44457392169E+01  0.16096494209E+02  0.16752051763E+02  0.00000000000E+00 0.  1.
</event>
<event>
 7    1  0.5972636E-013  0.5052885E+02  0.7816164E-02  0.1300439E+00
        -11   -1    0    0    0    0  0.00000000000E+00  0.00000000000E+00  0.45593999997E+02  0.45594000000E+02  0.51100000000E-03 0. -1.
         11   -1    0    0    0    0 -0.00000000000E+00 -0.00000000000E+00 -0.45593999997E+02  0.45594000000E+02  0.51100000000E-03 0.  1.
    9900012    2    1    2    0    0  0.89865964138E+01 -0.29491318991E+02 -0.26507909427E+02  0.50528854988E+02  0.29999985221E+02 0.  0.
         12    1    1    2    0    0 -0.89865964138E+01  0.29491318991E+02  0.26507909427E+02  0.40659145012E+02  0.00000000000E+00 0. -1.
         11    1    3    3    0    0  0.10830075046E+02 -0.13224361564E+02  0.91240666061E+00  0.17117439950E+02  0.51100000000E-03 0. -1.
        -11    1    3    3    0    0 -0.40377641433E+01 -0.47181639710E+01 -0.15369049985E+02  0.16576257365E+02  0.51100000000E-03 0.  1.
         12    1    3    3    0    0  0.21942855116E+01 -0.11548793456E+02 -0.12051266103E+02  0.16835157673E+02  0.00000000000E+00 0. -1.
</event>
<event>
 7    1  0.5972636E-013  0.5052886E+02  0.7816164E-02  0.1300439E+00
        -11   -1    0    0    0    0  0.00000000000E+00  0.00000000000E+00  0.45593999997E+02  0.45594000000E+02  0.51100000000E-03 0.  1.
         11   -1    0    0    0    0 -0.00000000000E+00 -0.00000000000E+00 -0.45593999997E+02  0.45594000000E+02  0.51100000000E-03 0. -1.
    9900012    2    1    2    0    0 -0.35646453008E+02 -0.17686819731E+02  0.83470085862E+01  0.50528858880E+02  0.29999997052E+02 0.  0.
         12    1    1    2    0    0  0.35646453008E+02  0.17686819731E+02 -0.83470085862E+01  0.40659141120E+02  0.00000000000E+00 0. -1.
         11    1    3    3    0    0  0.31417414844E+01  0.18345807853E+01 -0.27513425734E+00  0.36485511280E+01  0.51100000000E-03 0. -1.
        -11    1    3    3    0    0 -0.34118626618E+02 -0.17016221592E+02  0.17022992405E+01  0.38164516275E+02  0.51100000000E-03 0.  1.
         12    1    3    3    0    0 -0.46695678747E+01 -0.25051789245E+01  0.69198436031E+01  0.87157914771E+01  0.00000000000E+00 0. -1.
</event>
<event>
 7    1  0.5972636E-013  0.5052887E+02  0.7816164E-02  0.1300439E+00
        -11   -1    0    0    0    0  0.00000000000E+00  0.00000000000E+00  0.45593999997E+02  0.45594000000E+02  0.51100000000E-03 0.  1.
         11   -1    0    0    0    0 -0.00000000000E+00 -0.00000000000E+00 -0.45593999997E+02  0.45594000000E+02  0.51100000000E-03 0. -1.
    9900012    2    1    2    0    0  0.10558247369E+02 -0.37310202918E+02 -0.12232634328E+02  0.50528866071E+02  0.30000018909E+02 0.  0.
         12    1    1    2    0    0 -0.10558247369E+02  0.37310202918E+02  0.12232634328E+02  0.40659133929E+02  0.00000000000E+00 0. -1.
         11    1    3    3    0    0 -0.85194152176E+01 -0.96174590274E+01 -0.74639403535E+01  0.14858881508E+02  0.51100000000E-03 0. -1.
        -11    1    3    3    0    0  0.18882437094E+02 -0.20045864709E+02 -0.51282099897E+01  0.28012169864E+02  0.51100000000E-03 0.  1.
        -12    1    3    3    0    0  0.19522549330E+00 -0.76468791810E+01  0.35951601512E+00  0.76578146992E+01  0.00000000000E+00 0.  1.
</event>
<event>
 7    1  0.5972636E-013  0.5052886E+02  0.7816164E-02  0.1300439E+00
        -11   -1    0    0    0    0  0.00000000000E+00  0.00000000000E+00  0.45593999997E+02  0.45594000000E+02  0.51100000000E-03 0. -1.
         11   -1    0    0    0    0 -0.00000000000E+00 -0.00000000000E+00 -0.45593999997E+02  0.45594000000E+02  0.51100000000E-03 0.  1.
    9900012    2    1    2    0    0  0.55983087655E+01  0.35429163262E+02 -0.19146775850E+02  0.50528859626E+02  0.29999999320E+02 0.  0.
         12    1    1    2    0    0 -0.55983087655E+01 -0.35429163262E+02  0.19146775850E+02  0.40659140374E+02  0.00000000000E+00 0. -1.
         11    1    3    3    0    0  0.36999497181E+01  0.95629832480E+00  0.11918214755E+01  0.40030704581E+01  0.51100000000E-03 0. -1.
        -11    1    3    3    0    0  0.29235480535E+01  0.18332643240E+02 -0.23600948765E+02  0.30027282999E+02  0.51100000000E-03 0.  1.
        -12    1    3    3    0    0 -0.10251890060E+01  0.16140221697E+02  0.32623514395E+01  0.16498506170E+02  0.00000000000E+00 0.  1.
</event>
<event>
 7    1  0.5972636E-013  0.5052886E+02  0.7816164E-02  0.1300439E+00
        -11   -1    0    0    0    0  0.00000000000E+00  0.00000000000E+00  0.45593999997E+02  0.45594000000E+02  0.51100000000E-03 0.  1.
         11   -1    0    0    0    0 -0.00000000000E+00 -0.00000000000E+00 -0.45593999997E+02  0.45594000000E+02  0.51100000000E-03 0. -1.
    9900012    2    1    2    0    0 -0.79565520960E+00  0.20029733711E+02  0.35374319263E+02  0.50528858800E+02  0.29999996809E+02 0.  0.
         12    1    1    2    0    0  0.79565520960E+00 -0.20029733711E+02 -0.35374319263E+02  0.40659141200E+02  0.00000000000E+00 0. -1.
         11    1    3    3    0    0  0.47922768616E+01  0.15812599525E+02  0.31918850339E+02  0.35941859001E+02  0.51100000000E-03 0.  1.
        -11    1    3    3    0    0 -0.49189127838E+01 -0.36081014121E+01  0.27809331810E+01  0.67043037217E+01  0.51100000000E-03 0. -1.
        -12    1    3    3    0    0 -0.66901928739E+00  0.78252355985E+01  0.67453574376E+00  0.78826960774E+01  0.00000000000E+00 0.  1.
</event>
<event>
 7    1  0.5972636E-013  0.5052886E+02  0.7816164E-02  0.1300439E+00
        -11   -1    0    0    0    0  0.00000000000E+00  0.00000000000E+00  0.45593999997E+02  0.45594000000E+02  0.51100000000E-03 0. -1.
         11   -1    0    0    0    0 -0.00000000000E+00 -0.00000000000E+00 -0.45593999997E+02  0.45594000000E+02  0.51100000000E-03 0.  1.
    9900012    2    1    2    0    0  0.26829105314E+02 -0.28562641447E+02 -0.10841598930E+02  0.50528860243E+02  0.30000001196E+02 0.  0.
         12    1    1    2    0    0 -0.26829105314E+02  0.28562641447E+02  0.10841598930E+02  0.40659139757E+02  0.00000000000E+00 0. -1.
         11    1    3    3    0    0  0.92795316165E+01  0.49002083911E+01 -0.61564001312E+01  0.12166470817E+02  0.51100000000E-03 0. -1.
        -11    1    3    3    0    0  0.14976803376E+02 -0.24790115290E+02 -0.26042218015E+01  0.29079828522E+02  0.51100000000E-03 0.  1.
         12    1    3    3    0    0  0.25727703213E+01 -0.86727345490E+01 -0.20809769968E+01  0.92825609045E+01  0.00000000000E+00 0. -1.
</event>
<event>
 7    1  0.5972636E-013  0.5052886E+02  0.7816164E-02  0.1300439E+00
        -11   -1    0    0    0    0  0.00000000000E+00  0.00000000000E+00  0.45593999997E+02  0.45594000000E+02  0.51100000000E-03 0.  1.
         11   -1    0    0    0    0 -0.00000000000E+00 -0.00000000000E+00 -0.45593999997E+02  0.45594000000E+02  0.51100000000E-03 0. -1.
    9900012    2    1    2    0    0  0.12221154094E+01 -0.66189826979E+01  0.40098146060E+02  0.50528858156E+02  0.29999994852E+02 0.  0.
         12    1    1    2    0    0 -0.12221154094E+01  0.66189826979E+01 -0.40098146060E+02  0.40659141844E+02  0.00000000000E+00 0. -1.
         11    1    3    3    0    0  0.69121360211E+01  0.46236830500E+01  0.15123347770E+02  0.17258960495E+02  0.51100000000E-03 0. -1.
        -11    1    3    3    0    0 -0.67991774654E+00 -0.12029673135E+02  0.56815893034E+01  0.13321252987E+02  0.51100000000E-03 0.  1.
        -12    1    3    3    0    0 -0.50101028652E+01  0.78700738707E+00  0.19293208986E+02  0.19948644674E+02  0.00000000000E+00 0.  1.
</event>
<event>
 7    1  0.5972636E-013  0.5052886E+02  0.7816164E-02  0.1300439E+00
        -11   -1    0    0    0    0  0.00000000000E+00  0.00000000000E+00  0.45593999997E+02  0.45594000000E+02  0.51100000000E-03 0.  1.
         11   -1    0    0    0    0 -0.00000000000E+00 -0.00000000000E+00 -0.45593999997E+02  0.45594000000E+02  0.51100000000E-03 0. -1.
    9900012    2    1    2    0    0 -0.92461407762E+00  0.31405828401E+02  0.25806677568E+02  0.50528861103E+02  0.30000003809E+02 0.  0.
         12    1    1    2    0    0  0.92461407762E+00 -0.31405828401E+02 -0.25806677568E+02  0.40659138897E+02  0.00000000000E+00 0. -1.
         11    1    3    3    0    0  0.58713751472E+00  0.75468047673E+01  0.20996391214E+02  0.22319216763E+02  0.51100000000E-03 0. -1.
        -11    1    3    3    0    0 -0.23940311642E+01  0.24421888498E+02  0.13295030304E+01  0.24574938486E+02  0.51100000000E-03 0.  1.
        -12    1    3    3    0    0  0.88227957184E+00 -0.56286486446E+00  0.34807833237E+01  0.36347058540E+01  0.00000000000E+00 0.  1.
</event>
<event>
 7    1  0.5972636E-013  0.5052886E+02  0.7816164E-02  0.1300439E+00
        -11   -1    0    0    0    0  0.00000000000E+00  0.00000000000E+00  0.45593999997E+02  0.45594000000E+02  0.51100000000E-03 0.  1.
         11   -1    0    0    0    0 -0.00000000000E+00 -0.00000000000E+00 -0.45593999997E+02  0.45594000000E+02  0.51100000000E-03 0. -1.
    9900012    2    1    2    0    0  0.38839113481E+01 -0.87882548581E+01  0.39507558205E+02  0.50528863928E+02  0.30000012396E+02 0.  0.
         12    1    1    2    0    0 -0.38839113481E+01  0.87882548581E+01 -0.39507558205E+02  0.40659136072E+02  0.00000000000E+00 0. -1.
         11    1    3    3    0    0 -0.55278826870E+01 -0.24508903710E+01  0.15779970943E+02  0.16898870786E+02  0.51100000000E-03 0. -1.
        -11    1    3    3    0    0  0.14144138043E+02 -0.10212077026E+02  0.19662468681E+02  0.26286038748E+02  0.51100000000E-03 0.  1.
        -12    1    3    3    0    0 -0.47323440079E+01  0.38747125393E+01  0.40651185810E+01  0.73439543945E+01  0.00000000000E+00 0.  1.
</event>
<event>
 7    1  0.5972636E-013  0.5052885E+02  0.7816164E-02  0.1300439E+00
        -11   -1    0    0    0    0  0.00000000000E+00  0.00000000000E+00  0.45593999997E+02  0.45594000000E+02  0.51100000000E-03 0.  1.
         11   -1    0    0    0    0 -0.00000000000E+00 -0.00000000000E+00 -0.45593999997E+02  0.45594000000E+02  0.51100000000E-03 0. -1.
    9900012    2    1    2    0    0 -0.30843426292E+02  0.11986379481E+02  0.23625746425E+02  0.50528854256E+02  0.29999982997E+02 0.  0.
         12    1    1    2    0    0  0.30843426292E+02 -0.11986379481E+02 -0.23625746425E+02  0.40659145744E+02  0.00000000000E+00 0. -1.
         11    1    3    3    0    0  0.21495236312E+01  0.13546161431E+01 -0.25852669985E+01  0.36247817108E+01  0.51100000000E-03 0. -1.
        -11    1    3    3    0    0 -0.31754747174E+02  0.38933400658E+01  0.20629098708E+02  0.38066806784E+02  0.51100000000E-03 0.  1.
        -12    1    3    3    0    0 -0.12382027491E+01  0.67384232726E+01  0.55819147150E+01  0.88372657612E+01  0.00000000000E+00 0.  1.
</event>
<event>
 7    1  0.5972636E-013  0.5052886E+02  0.7816164E-02  0.1300439E+00
        -11   -1    0    0    0    0  0.00000000000E+00  0.00000000000E+00  0.45593999997E+02  0.45594000000E+02  0.51100000000E-03 0.  1.
         11   -1    0    0    0    0 -0.00000000000E+00 -0.00000000000E+00 -0.45593999997E+02  0.45594000000E+02  0.51100000000E-03 0. -1.
    9900012    2    1    2    0    0 -0.21025673085E+02 -0.29221807208E+02 -0.18899003630E+02  0.50528864699E+02  0.30000014740E+02 0.  0.
         12    1    1    2    0    0  0.21025673085E+02  0.29221807208E+02  0.18899003630E+02  0.40659135301E+02  0.00000000000E+00 0. -1.
         11    1    3    3    0    0 -0.43273966550E+01  0.11946676170E+01  0.11329246035E+01  0.46300227799E+01  0.51100000000E-03 0. -1.
        -11    1    3    3    0    0 -0.15464047105E+02 -0.33531794073E+02 -0.20909473813E+02  0.42434939166E+02  0.51100000000E-03 0.  1.
        -12    1    3    3    0    0 -0.12342293254E+01  0.31153192475E+01  0.87754557985E+00  0.34639027536E+01  0.00000000000E+00 0.  1.
</event>
<event>
 7    1  0.5972636E-013  0.5052886E+02  0.7816164E-02  0.1300439E+00
        -11   -1    0    0    0    0  0.00000000000E+00  0.00000000000E+00  0.45593999997E+02  0.45594000000E+02  0.51100000000E-03 0. -1.
         11   -1    0    0    0    0 -0.00000000000E+00 -0.00000000000E+00 -0.45593999997E+02  0.45594000000E+02  0.51100000000E-03 0.  1.
    9900012    2    1    2    0    0 -0.85618522703E+00  0.14414254899E+02 -0.38008703951E+02  0.50528863591E+02  0.30000011372E+02 0.  0.
         12    1    1    2    0    0  0.85618522703E+00 -0.14414254899E+02  0.38008703951E+02  0.40659136409E+02  0.00000000000E+00 0. -1.
         11    1    3    3    0    0 -0.12402516317E+02  0.94350361135E+01 -0.14003054889E+02  0.20950605336E+02  0.51100000000E-03 0. -1.
        -11    1    3    3    0    0  0.67015258064E+01  0.51694390270E+01 -0.47165788249E+01  0.96891518752E+01  0.51100000000E-03 0.  1.
         12    1    3    3    0    0  0.48448052835E+01 -0.19022024190E+00 -0.19289070238E+02  0.19889106380E+02  0.00000000000E+00 0. -1.
</event>
<event>
 7    1  0.5972636E-013  0.5052886E+02  0.7816164E-02  0.1300439E+00
        -11   -1    0    0    0    0  0.00000000000E+00  0.00000000000E+00  0.45593999997E+02  0.45594000000E+02  0.51100000000E-03 0.  1.
         11   -1    0    0    0    0 -0.00000000000E+00 -0.00000000000E+00 -0.45593999997E+02  0.45594000000E+02  0.51100000000E-03 0. -1.
    9900012    2    1    2    0    0 -0.30862487842E+02  0.15470621395E+02  0.21478645531E+02  0.50528862085E+02  0.30000006793E+02 0.  0.
         12    1    1    2    0    0  0.30862487842E+02 -0.15470621395E+02 -0.21478645531E+02  0.40659137915E+02  0.00000000000E+00 0. -1.
         11    1    3    3    0    0 -0.22545523961E+02  0.22278386296E-03  0.14434264781E+02  0.26770294185E+02  0.51100000000E-03 0. -1.
        -11    1    3    3    0    0 -0.94830001240E+01  0.12926001716E+02  0.10610877516E+02  0.19224971616E+02  0.51100000000E-03 0.  1.
         12    1    3    3    0    0  0.11660362430E+01  0.25443968957E+01 -0.35664967663E+01  0.45335962841E+01  0.00000000000E+00 0. -1.
</event>
<event>
 7    1  0.5972636E-013  0.5052886E+02  0.7816164E-02  0.1300439E+00
        -11   -1    0    0    0    0  0.00000000000E+00  0.00000000000E+00  0.45593999997E+02  0.45594000000E+02  0.51100000000E-03 0.  1.
         11   -1    0    0    0    0 -0.00000000000E+00 -0.00000000000E+00 -0.45593999997E+02  0.45594000000E+02  0.51100000000E-03 0. -1.
    9900012    2    1    2    0    0 -0.86541326806E+01 -0.30534898923E+02  0.25414395336E+02  0.50528861360E+02  0.30000004589E+02 0.  0.
         12    1    1    2    0    0  0.86541326806E+01  0.30534898923E+02 -0.25414395336E+02  0.40659138640E+02  0.00000000000E+00 0. -1.
         11    1    3    3    0    0  0.15069941228E-01  0.32696422859E+01  0.89553100633E+01  0.95335390266E+01  0.51100000000E-03 0. -1.
        -11    1    3    3    0    0 -0.76261018580E+01 -0.21434402749E+02  0.17257810737E+02  0.28555613852E+02  0.51100000000E-03 0.  1.
         12    1    3    3    0    0 -0.10431007638E+01 -0.12370138460E+02 -0.79872546474E+00  0.12439708481E+02  0.00000000000E+00 0. -1.
</event>
<event>
 7    1  0.5972636E-013  0.5052887E+02  0.7816164E-02  0.1300439E+00
        -11   -1    0    0    0    0  0.00000000000E+00  0.00000000000E+00  0.45593999997E+02  0.45594000000E+02  0.51100000000E-03 0.  1.
         11   -1    0    0    0    0 -0.00000000000E+00 -0.00000000000E+00 -0.45593999997E+02  0.45594000000E+02  0.51100000000E-03 0. -1.
    9900012    2    1    2    0    0  0.35785001052E+02 -0.46940410247E+01 -0.18723375004E+02  0.50528867041E+02  0.30000021859E+02 0.  0.
         12    1    1    2    0    0 -0.35785001052E+02  0.46940410247E+01  0.18723375004E+02  0.40659132959E+02  0.00000000000E+00 0. -1.
         11    1    3    3    0    0  0.14622179647E+02  0.10043892668E+02 -0.20013311127E+01  0.17851981516E+02  0.51100000000E-03 0.  1.
        -11    1    3    3    0    0  0.19385333809E+02 -0.15164867761E+02 -0.17960580902E+02  0.30468784808E+02  0.51100000000E-03 0. -1.
        -12    1    3    3    0    0  0.17774875951E+01  0.42693406830E+00  0.12385370112E+01  0.22081007173E+01  0.00000000000E+00 0.  1.
</event>
<event>
 7    1  0.5972636E-013  0.5052887E+02  0.7816164E-02  0.1300439E+00
        -11   -1    0    0    0    0  0.00000000000E+00  0.00000000000E+00  0.45593999997E+02  0.45594000000E+02  0.51100000000E-03 0. -1.
         11   -1    0    0    0    0 -0.00000000000E+00 -0.00000000000E+00 -0.45593999997E+02  0.45594000000E+02  0.51100000000E-03 0.  1.
    9900012    2    1    2    0    0  0.39053292874E+02  0.62488320307E+01 -0.94317005154E+01  0.50528873587E+02  0.30000041756E+02 0.  0.
         12    1    1    2    0    0 -0.39053292874E+02 -0.62488320307E+01  0.94317005154E+01  0.40659126413E+02  0.00000000000E+00 0. -1.
         11    1    3    3    0    0 -0.38250755535E+00 -0.37855839964E+01  0.41784740629E+00  0.38277349621E+01  0.51100000000E-03 0. -1.
        -11    1    3    3    0    0  0.33659896088E+02  0.43817164705E+01 -0.15007718420E+02  0.37113604734E+02  0.51100000000E-03 0.  1.
        -12    1    3    3    0    0  0.57759043411E+01  0.56526995567E+01  0.51581704983E+01  0.95875338917E+01  0.00000000000E+00 0.  1.
</event>
<event>
 7    1  0.5972636E-013  0.5052884E+02  0.7816164E-02  0.1300439E+00
        -11   -1    0    0    0    0  0.00000000000E+00  0.00000000000E+00  0.45593999997E+02  0.45594000000E+02  0.51100000000E-03 0.  1.
         11   -1    0    0    0    0 -0.00000000000E+00 -0.00000000000E+00 -0.45593999997E+02  0.45594000000E+02  0.51100000000E-03 0. -1.
    9900012    2    1    2    0    0  0.30132051956E+02 -0.24205290226E+02  0.12622629655E+02  0.50528838556E+02  0.29999935273E+02 0.  0.
         12    1    1    2    0    0 -0.30132051956E+02  0.24205290226E+02 -0.12622629655E+02  0.40659161444E+02  0.00000000000E+00 0. -1.
         11    1    3    3    0    0 -0.19124669897E+01  0.86304076905E+00  0.14548862971E+00  0.21032205206E+01  0.51100000000E-03 0. -1.
        -11    1    3    3    0    0  0.34249887170E+02 -0.26558982559E+02  0.93847013076E+01  0.44345314799E+02  0.51100000000E-03 0.  1.
        -12    1    3    3    0    0 -0.22053682249E+01  0.14906515639E+01  0.30924397176E+01  0.40803032362E+01  0.00000000000E+00 0.  1.
</event>
<event>
 7    1  0.5972636E-013  0.5052889E+02  0.7816164E-02  0.1300439E+00
        -11   -1    0    0    0    0  0.00000000000E+00  0.00000000000E+00  0.45593999997E+02  0.45594000000E+02  0.51100000000E-03 0. -1.
         11   -1    0    0    0    0 -0.00000000000E+00 -0.00000000000E+00 -0.45593999997E+02  0.45594000000E+02  0.51100000000E-03 0.  1.
    9900012    2    1    2    0    0  0.86121123202E+01  0.30417960636E+02  0.25568387917E+02  0.50528889477E+02  0.30000090054E+02 0.  0.
         12    1    1    2    0    0 -0.86121123202E+01 -0.30417960636E+02 -0.25568387917E+02  0.40659110523E+02  0.00000000000E+00 0. -1.
         11    1    3    3    0    0  0.16891030830E+01 -0.50612176089E+00 -0.53096679607E+01  0.55948013884E+01  0.51100000000E-03 0. -1.
        -11    1    3    3    0    0  0.63250201474E+01  0.13254586562E+02  0.11122877290E+02  0.18423038410E+02  0.51100000000E-03 0.  1.
         12    1    3    3    0    0  0.59798908983E+00  0.17669495835E+02  0.19755178588E+02  0.26511049679E+02  0.00000000000E+00 0. -1.
</event>
<event>
 7    1  0.5972636E-013  0.5052886E+02  0.7816164E-02  0.1300439E+00
        -11   -1    0    0    0    0  0.00000000000E+00  0.00000000000E+00  0.45593999997E+02  0.45594000000E+02  0.51100000000E-03 0.  1.
         11   -1    0    0    0    0 -0.00000000000E+00 -0.00000000000E+00 -0.45593999997E+02  0.45594000000E+02  0.51100000000E-03 0. -1.
    9900012    2    1    2    0    0 -0.39229226329E+02  0.19111672451E+01 -0.10515737701E+02  0.50528862060E+02  0.30000006719E+02 0.  0.
         12    1    1    2    0    0  0.39229226329E+02 -0.19111672451E+01  0.10515737701E+02  0.40659137940E+02  0.00000000000E+00 0. -1.
         11    1    3    3    0    0 -0.11867633628E+02  0.13988670699E+02 -0.70271904690E+01  0.19644465939E+02  0.51100000000E-03 0. -1.
        -11    1    3    3    0    0 -0.17280680431E+02 -0.67620475577E+01  0.11223989493E+01  0.18590507873E+02  0.51100000000E-03 0.  1.
         12    1    3    3    0    0 -0.10080912270E+02 -0.53154558965E+01 -0.46109461814E+01  0.12293888249E+02  0.00000000000E+00 0. -1.
</event>
<event>
 7    1  0.5972636E-013  0.5052885E+02  0.7816164E-02  0.1300439E+00
        -11   -1    0    0    0    0  0.00000000000E+00  0.00000000000E+00  0.45593999997E+02  0.45594000000E+02  0.51100000000E-03 0. -1.
         11   -1    0    0    0    0 -0.00000000000E+00 -0.00000000000E+00 -0.45593999997E+02  0.45594000000E+02  0.51100000000E-03 0.  1.
    9900012    2    1    2    0    0 -0.23135172055E+02 -0.18959232112E+01 -0.33381669762E+02  0.50528848669E+02  0.29999966015E+02 0.  0.
         12    1    1    2    0    0  0.23135172055E+02  0.18959232112E+01  0.33381669762E+02  0.40659151331E+02  0.00000000000E+00 0. -1.
         11    1    3    3    0    0 -0.85468764865E+01 -0.89369431840E+01 -0.61053692208E+01  0.13791069021E+02  0.51100000000E-03 0. -1.
        -11    1    3    3    0    0 -0.10410638426E+02  0.95690510609E+01 -0.68057164756E+01  0.15692861678E+02  0.51100000000E-03 0.  1.
        -12    1    3    3    0    0 -0.41776571423E+01 -0.25280310881E+01 -0.20470584066E+02  0.21044917970E+02  0.00000000000E+00 0.  1.
</event>
<event>
 7    1  0.5972636E-013  0.5052883E+02  0.7816164E-02  0.1300439E+00
        -11   -1    0    0    0    0  0.00000000000E+00  0.00000000000E+00  0.45593999997E+02  0.45594000000E+02  0.51100000000E-03 0. -1.
         11   -1    0    0    0    0 -0.00000000000E+00 -0.00000000000E+00 -0.45593999997E+02  0.45594000000E+02  0.51100000000E-03 0.  1.
    9900012    2    1    2    0    0  0.25716180313E+02 -0.29351016723E+02  0.11417706772E+02  0.50528829565E+02  0.29999907945E+02 0.  0.
         12    1    1    2    0    0 -0.25716180313E+02  0.29351016723E+02 -0.11417706772E+02  0.40659170435E+02  0.00000000000E+00 0. -1.
         11    1    3    3    0    0  0.12488118719E+02 -0.21584866472E+02  0.68890937283E+01  0.25871203730E+02  0.51100000000E-03 0.  1.
        -11    1    3    3    0    0  0.44754668935E+01  0.56790906811E+01  0.46813380803E+01  0.86137565187E+01  0.51100000000E-03 0. -1.
         12    1    3    3    0    0  0.87525947000E+01 -0.13445240932E+02 -0.15272503664E+00  0.16043869316E+02  0.00000000000E+00 0. -1.
</event>
<event>
 7    1  0.5972636E-013  0.5052883E+02  0.7816164E-02  0.1300439E+00
        -11   -1    0    0    0    0  0.00000000000E+00  0.00000000000E+00  0.45593999997E+02  0.45594000000E+02  0.51100000000E-03 0.  1.
         11   -1    0    0    0    0 -0.00000000000E+00 -0.00000000000E+00 -0.45593999997E+02  0.45594000000E+02  0.51100000000E-03 0. -1.
    9900012    2    1    2    0    0  0.99825717586E+01  0.17469807101E+02  0.35331598030E+02  0.50528834756E+02  0.29999923723E+02 0.  0.
         12    1    1    2    0    0 -0.99825717586E+01 -0.17469807101E+02 -0.35331598030E+02  0.40659165244E+02  0.00000000000E+00 0. -1.
         11    1    3    3    0    0  0.51911244427E+00  0.20202713496E+01 -0.46646418542E+01  0.51097806161E+01  0.51100000000E-03 0. -1.
        -11    1    3    3    0    0  0.31815690743E+00  0.48045292594E+01  0.22400211179E+02  0.22911878717E+02  0.51100000000E-03 0.  1.
         12    1    3    3    0    0  0.91453024069E+01  0.10645006492E+02  0.17596028705E+02  0.22507175423E+02  0.00000000000E+00 0. -1.
</event>
<event>
 7    1  0.5972636E-013  0.5052886E+02  0.7816164E-02  0.1300439E+00
        -11   -1    0    0    0    0  0.00000000000E+00  0.00000000000E+00  0.45593999997E+02  0.45594000000E+02  0.51100000000E-03 0.  1.
         11   -1    0    0    0    0 -0.00000000000E+00 -0.00000000000E+00 -0.45593999997E+02  0.45594000000E+02  0.51100000000E-03 0. -1.
    9900012    2    1    2    0    0  0.21703205631E+02  0.14004558608E+00  0.34381927888E+02  0.50528859420E+02  0.29999998692E+02 0.  0.
         12    1    1    2    0    0 -0.21703205631E+02 -0.14004558608E+00 -0.34381927888E+02  0.40659140580E+02  0.00000000000E+00 0. -1.
         11    1    3    3    0    0  0.19175763613E+02 -0.47902127168E+01  0.19486856201E+02  0.27755965357E+02  0.51100000000E-03 0. -1.
        -11    1    3    3    0    0 -0.22379936265E+01  0.29755890386E+01  0.16855396935E+02  0.17261725050E+02  0.51100000000E-03 0.  1.
         12    1    3    3    0    0  0.47654356442E+01  0.19546692643E+01 -0.19603252482E+01  0.55111690131E+01  0.00000000000E+00 0. -1.
</event>
<event>
 7    1  0.5972636E-013  0.5052883E+02  0.7816164E-02  0.1300439E+00
        -11   -1    0    0    0    0  0.00000000000E+00  0.00000000000E+00  0.45593999997E+02  0.45594000000E+02  0.51100000000E-03 0.  1.
         11   -1    0    0    0    0 -0.00000000000E+00 -0.00000000000E+00 -0.45593999997E+02  0.45594000000E+02  0.51100000000E-03 0. -1.
    9900012    2    1    2    0    0 -0.13856584266E+02 -0.16553556546E+02  0.34454937893E+02  0.50528832436E+02  0.29999916671E+02 0.  0.
         12    1    1    2    0    0  0.13856584266E+02  0.16553556546E+02 -0.34454937893E+02  0.40659167564E+02  0.00000000000E+00 0. -1.
         11    1    3    3    0    0 -0.95038442686E+01 -0.10020192077E+02  0.68372406462E+00  0.13827320203E+02  0.51100000000E-03 0. -1.
        -11    1    3    3    0    0 -0.23096809187E+01 -0.10011037843E+02  0.22641515278E+02  0.24863501744E+02  0.51100000000E-03 0.  1.
         12    1    3    3    0    0 -0.20430590783E+01  0.34776733743E+01  0.11129698551E+02  0.11838010488E+02  0.00000000000E+00 0. -1.
</event>
<event>
 7    1  0.5972636E-013  0.5052886E+02  0.7816164E-02  0.1300439E+00
        -11   -1    0    0    0    0  0.00000000000E+00  0.00000000000E+00  0.45593999997E+02  0.45594000000E+02  0.51100000000E-03 0.  1.
         11   -1    0    0    0    0 -0.00000000000E+00 -0.00000000000E+00 -0.45593999997E+02  0.45594000000E+02  0.51100000000E-03 0. -1.
    9900012    2    1    2    0    0  0.30168898180E+02 -0.75100536670E+01  0.26203104546E+02  0.50528855748E+02  0.29999987531E+02 0.  0.
         12    1    1    2    0    0 -0.30168898180E+02  0.75100536670E+01 -0.26203104546E+02  0.40659144252E+02  0.00000000000E+00 0. -1.
         11    1    3    3    0    0  0.37567189404E+01 -0.14358886464E+01 -0.60440505307E+01  0.72598388743E+01  0.51100000000E-03 0. -1.
        -11    1    3    3    0    0  0.25414907996E+02 -0.40028566636E+01  0.31837882159E+02  0.40933985275E+02  0.51100000000E-03 0.  1.
         12    1    3    3    0    0  0.99727124377E+00 -0.20713083570E+01  0.40927291756E+00  0.23350315981E+01  0.00000000000E+00 0. -1.
</event>
<event>
 7    1  0.5972636E-013  0.5052887E+02  0.7816164E-02  0.1300439E+00
        -11   -1    0    0    0    0  0.00000000000E+00  0.00000000000E+00  0.45593999997E+02  0.45594000000E+02  0.51100000000E-03 0.  1.
         11   -1    0    0    0    0 -0.00000000000E+00 -0.00000000000E+00 -0.45593999997E+02  0.45594000000E+02  0.51100000000E-03 0. -1.
    9900012    2    1    2    0    0  0.23416725354E+02 -0.20610682454E+02  0.26077228921E+02  0.50528866638E+02  0.30000020634E+02 0.  0.
         12    1    1    2    0    0 -0.23416725354E+02  0.20610682454E+02 -0.26077228921E+02  0.40659133362E+02  0.00000000000E+00 0. -1.
         11    1    3    3    0    0 -0.57702133845E+01 -0.51310857563E+00  0.33855140898E+01  0.67097204731E+01  0.51100000000E-03 0. -1.
        -11    1    3    3    0    0  0.28337168685E+02 -0.14546183741E+02  0.18806157666E+02  0.36989973735E+02  0.51100000000E-03 0.  1.
        -12    1    3    3    0    0  0.84977005369E+00 -0.55513901375E+01  0.38855571654E+01  0.68291724307E+01  0.00000000000E+00 0.  1.
</event>
<event>
 7    1  0.5972636E-013  0.5052886E+02  0.7816164E-02  0.1300439E+00
        -11   -1    0    0    0    0  0.00000000000E+00  0.00000000000E+00  0.45593999997E+02  0.45594000000E+02  0.51100000000E-03 0. -1.
         11   -1    0    0    0    0 -0.00000000000E+00 -0.00000000000E+00 -0.45593999997E+02  0.45594000000E+02  0.51100000000E-03 0.  1.
    9900012    2    1    2    0    0  0.23960981514E+02  0.31932444579E+02 -0.77042842266E+01  0.50528860224E+02  0.30000001136E+02 0.  0.
         12    1    1    2    0    0 -0.23960981514E+02 -0.31932444579E+02  0.77042842266E+01  0.40659139776E+02  0.00000000000E+00 0. -1.
         11    1    3    3    0    0  0.33931531326E+01  0.50412439046E+01  0.82524733561E+01  0.10248460618E+02  0.51100000000E-03 0. -1.
        -11    1    3    3    0    0  0.15041544160E+02  0.90094546995E+01 -0.37338496756E+01  0.17926515511E+02  0.51100000000E-03 0.  1.
         12    1    3    3    0    0  0.55262842210E+01  0.17881745975E+02 -0.12222907907E+02  0.22353884095E+02  0.00000000000E+00 0. -1.
</event>
<event>
 7    1  0.5972636E-013  0.5052886E+02  0.7816164E-02  0.1300439E+00
        -11   -1    0    0    0    0  0.00000000000E+00  0.00000000000E+00  0.45593999997E+02  0.45594000000E+02  0.51100000000E-03 0.  1.
         11   -1    0    0    0    0 -0.00000000000E+00 -0.00000000000E+00 -0.45593999997E+02  0.45594000000E+02  0.51100000000E-03 0. -1.
    9900012    2    1    2    0    0  0.26194505964E+02 -0.12458633626E+02  0.28492029706E+02  0.50528862634E+02  0.30000008464E+02 0.  0.
         12    1    1    2    0    0 -0.26194505964E+02  0.12458633626E+02 -0.28492029706E+02  0.40659137366E+02  0.00000000000E+00 0. -1.
         11    1    3    3    0    0 -0.26579492594E+01  0.21249528427E+01  0.74466631243E+01  0.81873628720E+01  0.51100000000E-03 0. -1.
        -11    1    3    3    0    0  0.23653109671E+02 -0.56425862639E+01  0.78018362074E+01  0.25537756857E+02  0.51100000000E-03 0.  1.
        -12    1    3    3    0    0  0.51993455529E+01 -0.89410002051E+01  0.13243530374E+02  0.16803742905E+02  0.00000000000E+00 0.  1.
</event>
<event>
 7    1  0.5972636E-013  0.5052887E+02  0.7816164E-02  0.1300439E+00
        -11   -1    0    0    0    0  0.00000000000E+00  0.00000000000E+00  0.45593999997E+02  0.45594000000E+02  0.51100000000E-03 0. -1.
         11   -1    0    0    0    0 -0.00000000000E+00 -0.00000000000E+00 -0.45593999997E+02  0.45594000000E+02  0.51100000000E-03 0.  1.
    9900012    2    1    2    0    0  0.79512731675E+01  0.36529136994E+02 -0.15986379956E+02  0.50528868939E+02  0.30000027627E+02 0.  0.
         12    1    1    2    0    0 -0.79512731675E+01 -0.36529136994E+02  0.15986379956E+02  0.40659131061E+02  0.00000000000E+00 0. -1.
         11    1    3    3    0    0  0.47939881659E+01  0.23623406034E+01  0.60433265799E+01  0.80675133760E+01  0.51100000000E-03 0. -1.
        -11    1    3    3    0    0 -0.34067196386E+00  0.71203067321E+01 -0.10860655194E+02  0.12991099139E+02  0.51100000000E-03 0.  1.
         12    1    3    3    0    0  0.34979569655E+01  0.27046489659E+02 -0.11169051342E+02  0.29470256424E+02  0.00000000000E+00 0. -1.
</event>
<event>
 7    1  0.5972636E-013  0.5052885E+02  0.7816164E-02  0.1300439E+00
        -11   -1    0    0    0    0  0.00000000000E+00  0.00000000000E+00  0.45593999997E+02  0.45594000000E+02  0.51100000000E-03 0.  1.
         11   -1    0    0    0    0 -0.00000000000E+00 -0.00000000000E+00 -0.45593999997E+02  0.45594000000E+02  0.51100000000E-03 0. -1.
    9900012    2    1    2    0    0  0.19748125997E+02  0.86997176166E+01  0.34460018851E+02  0.50528850153E+02  0.29999970526E+02 0.  0.
         12    1    1    2    0    0 -0.19748125997E+02 -0.86997176166E+01 -0.34460018851E+02  0.40659149847E+02  0.00000000000E+00 0. -1.
         11    1    3    3    0    0  0.77213754927E+01  0.55473487133E+01 -0.37756205608E+01  0.10229761880E+02  0.51100000000E-03 0. -1.
        -11    1    3    3    0    0  0.82170775507E+01  0.10393678573E+01  0.27259777634E+02  0.28490281254E+02  0.51100000000E-03 0.  1.
         12    1    3    3    0    0  0.38096729539E+01  0.21130010459E+01  0.10975861778E+02  0.11808807019E+02  0.00000000000E+00 0. -1.
</event>
<event>
 7    1  0.5972636E-013  0.5052886E+02  0.7816164E-02  0.1300439E+00
        -11   -1    0    0    0    0  0.00000000000E+00  0.00000000000E+00  0.45593999997E+02  0.45594000000E+02  0.51100000000E-03 0.  1.
         11   -1    0    0    0    0 -0.00000000000E+00 -0.00000000000E+00 -0.45593999997E+02  0.45594000000E+02  0.51100000000E-03 0. -1.
    9900012    2    1    2    0    0 -0.34488437039E+01  0.60136293668E+01  0.40063789287E+02  0.50528862367E+02  0.30000007650E+02 0.  0.
         12    1    1    2    0    0  0.34488437039E+01 -0.60136293668E+01 -0.40063789287E+02  0.40659137633E+02  0.00000000000E+00 0. -1.
         11    1    3    3    0    0  0.64928676654E+01 -0.17882733115E+00  0.78212432854E+01  0.10166668900E+02  0.51100000000E-03 0. -1.
        -11    1    3    3    0    0 -0.11549135928E+02  0.33670655064E+01  0.51677355581E+01  0.13092943209E+02  0.51100000000E-03 0.  1.
        -12    1    3    3    0    0  0.16074245588E+01  0.28253911916E+01  0.27074810443E+02  0.27269250258E+02  0.00000000000E+00 0.  1.
</event>
<event>
 7    1  0.5972636E-013  0.5052885E+02  0.7816164E-02  0.1300439E+00
        -11   -1    0    0    0    0  0.00000000000E+00  0.00000000000E+00  0.45593999997E+02  0.45594000000E+02  0.51100000000E-03 0.  1.
         11   -1    0    0    0    0 -0.00000000000E+00 -0.00000000000E+00 -0.45593999997E+02  0.45594000000E+02  0.51100000000E-03 0. -1.
    9900012    2    1    2    0    0  0.11268546948E+02 -0.17536078716E+02  0.34909481763E+02  0.50528854362E+02  0.29999983319E+02 0.  0.
         12    1    1    2    0    0 -0.11268546948E+02  0.17536078716E+02 -0.34909481763E+02  0.40659145638E+02  0.00000000000E+00 0. -1.
         11    1    3    3    0    0 -0.54514808301E+01 -0.62880089106E+01  0.91308308633E+01  0.12354342225E+02  0.51100000000E-03 0. -1.
        -11    1    3    3    0    0  0.20914899534E+02 -0.11079658700E+02  0.23682230571E+02  0.33481934002E+02  0.51100000000E-03 0.  1.
        -12    1    3    3    0    0 -0.41948717566E+01 -0.16841110523E+00  0.20964203287E+01  0.46925781346E+01  0.00000000000E+00 0.  1.
</event>
<event>
 7    1  0.5972636E-013  0.5052886E+02  0.7816164E-02  0.1300439E+00
        -11   -1    0    0    0    0  0.00000000000E+00  0.00000000000E+00  0.45593999997E+02  0.45594000000E+02  0.51100000000E-03 0.  1.
         11   -1    0    0    0    0 -0.00000000000E+00 -0.00000000000E+00 -0.45593999997E+02  0.45594000000E+02  0.51100000000E-03 0. -1.
    9900012    2    1    2    0    0 -0.13616848353E+02  0.34616230466E+02  0.16415352592E+02  0.50528858697E+02  0.29999996496E+02 0.  0.
         12    1    1    2    0    0  0.13616848353E+02 -0.34616230466E+02 -0.16415352592E+02  0.40659141303E+02  0.00000000000E+00 0. -1.
         11    1    3    3    0    0  0.54686806325E+01  0.35376101087E+01  0.38765032141E+00  0.65246782430E+01  0.51100000000E-03 0. -1.
        -11    1    3    3    0    0 -0.22463767045E+02  0.26756128322E+02  0.11174128592E+02  0.36679318187E+02  0.51100000000E-03 0.  1.
        -12    1    3    3    0    0  0.33782380591E+01  0.43224920358E+01  0.48535736787E+01  0.73248622675E+01  0.00000000000E+00 0.  1.
</event>
<event>
 7    1  0.5972636E-013  0.5052887E+02  0.7816164E-02  0.1300439E+00
        -11   -1    0    0    0    0  0.00000000000E+00  0.00000000000E+00  0.45593999997E+02  0.45594000000E+02  0.51100000000E-03 0. -1.
         11   -1    0    0    0    0 -0.00000000000E+00 -0.00000000000E+00 -0.45593999997E+02  0.45594000000E+02  0.51100000000E-03 0.  1.
    9900012    2    1    2    0    0  0.29130093364E+02 -0.28345916673E+02  0.10542090057E+01  0.50528872021E+02  0.30000036995E+02 0.  0.
         12    1    1    2    0    0 -0.29130093364E+02  0.28345916673E+02 -0.10542090057E+01  0.40659127979E+02  0.00000000000E+00 0. -1.
         11    1    3    3    0    0  0.50590207673E+01  0.23354737612E+01  0.69483815598E+01  0.89066343461E+01  0.51100000000E-03 0. -1.
        -11    1    3    3    0    0  0.21330286743E+02 -0.17520845506E+02 -0.22558289589E+01  0.27695666165E+02  0.51100000000E-03 0.  1.
        -12    1    3    3    0    0  0.27407858537E+01 -0.13160544928E+02 -0.36383435952E+01  0.13926571510E+02  0.00000000000E+00 0.  1.
</event>
<event>
 7    1  0.5972636E-013  0.5052886E+02  0.7816164E-02  0.1300439E+00
        -11   -1    0    0    0    0  0.00000000000E+00  0.00000000000E+00  0.45593999997E+02  0.45594000000E+02  0.51100000000E-03 0.  1.
         11   -1    0    0    0    0 -0.00000000000E+00 -0.00000000000E+00 -0.45593999997E+02  0.45594000000E+02  0.51100000000E-03 0. -1.
    9900012    2    1    2    0    0  0.50275322936E+01  0.34044113538E+02  0.21653825522E+02  0.50528857027E+02  0.29999991419E+02 0.  0.
         12    1    1    2    0    0 -0.50275322936E+01 -0.34044113538E+02 -0.21653825522E+02  0.40659142973E+02  0.00000000000E+00 0. -1.
         11    1    3    3    0    0  0.49336003433E+01  0.10779046574E+02  0.35685761401E+01  0.12379943188E+02  0.51100000000E-03 0. -1.
        -11    1    3    3    0    0 -0.95208395310E+01  0.20638857659E+02  0.16429647695E+02  0.28045358876E+02  0.51100000000E-03 0.  1.
        -12    1    3    3    0    0  0.96147714812E+01  0.26262093048E+01  0.16556016875E+01  0.10103554963E+02  0.00000000000E+00 0.  1.
</event>
<event>
 7    1  0.5972636E-013  0.5052885E+02  0.7816164E-02  0.1300439E+00
        -11   -1    0    0    0    0  0.00000000000E+00  0.00000000000E+00  0.45593999997E+02  0.45594000000E+02  0.51100000000E-03 0.  1.
         11   -1    0    0    0    0 -0.00000000000E+00 -0.00000000000E+00 -0.45593999997E+02  0.45594000000E+02  0.51100000000E-03 0. -1.
    9900012    2    1    2    0    0 -0.35401456720E+02 -0.15623837758E+02  0.12481957228E+02  0.50528847274E+02  0.29999961774E+02 0.  0.
         12    1    1    2    0    0  0.35401456720E+02  0.15623837758E+02 -0.12481957228E+02  0.40659152726E+02  0.00000000000E+00 0. -1.
         11    1    3    3    0    0 -0.18875398622E+02 -0.18639815965E+02 -0.30030914412E+00  0.26529485450E+02  0.51100000000E-03 0. -1.
        -11    1    3    3    0    0 -0.17938767519E+02  0.29096605103E+01  0.96835509028E+01  0.20592150512E+02  0.51100000000E-03 0.  1.
         12    1    3    3    0    0  0.14127094215E+01  0.10631769717E+00  0.30987154695E+01  0.34072113118E+01  0.00000000000E+00 0. -1.
</event>
<event>
 7    1  0.6789543E-013  0.5052886E+02  0.7816164E-02  0.1300439E+00
        -11   -1    0    0    0    0  0.00000000000E+00  0.00000000000E+00  0.45593999997E+02  0.45594000000E+02  0.51100000000E-03 0.  1.
         11   -1    0    0    0    0 -0.00000000000E+00 -0.00000000000E+00 -0.45593999997E+02  0.45594000000E+02  0.51100000000E-03 0. -1.
    9900012    2    1    2    0    0 -0.36712561412E+02 -0.17226053915E+02 -0.29354391345E+01  0.50528857094E+02  0.29999991623E+02 0.  0.
         12    1    1    2    0    0  0.36712561412E+02  0.17226053915E+02  0.29354391345E+01  0.40659142906E+02  0.00000000000E+00 0. -1.
         11    1    3    3    0    0 -0.35913144906E+01 -0.10674890042E+02 -0.44901117728E+01  0.12124847264E+02  0.51100000000E-03 0. -1.
        -11    1    3    3    0    0 -0.22678865922E+02  0.25627874948E+01 -0.45275173830E+01  0.23267944756E+02  0.51100000000E-03 0.  1.
        -12    1    3    3    0    0 -0.10442381000E+02 -0.91139513677E+01  0.60821900212E+01  0.15136065074E+02  0.00000000000E+00 0.  1.
</event>
<event>
 7    1  0.5972636E-013  0.5052886E+02  0.7816164E-02  0.1300439E+00
        -11   -1    0    0    0    0  0.00000000000E+00  0.00000000000E+00  0.45593999997E+02  0.45594000000E+02  0.51100000000E-03 0. -1.
         11   -1    0    0    0    0 -0.00000000000E+00 -0.00000000000E+00 -0.45593999997E+02  0.45594000000E+02  0.51100000000E-03 0.  1.
    9900012    2    1    2    0    0 -0.81200658782E+01 -0.27385388131E+02 -0.28935628121E+02  0.50528861695E+02  0.30000005608E+02 0.  0.
         12    1    1    2    0    0  0.81200658782E+01  0.27385388131E+02  0.28935628121E+02  0.40659138305E+02  0.00000000000E+00 0. -1.
         11    1    3    3    0    0  0.84126053107E+01 -0.98966616170E+01 -0.15436352310E+01  0.13080468236E+02  0.51100000000E-03 0. -1.
        -11    1    3    3    0    0 -0.54078192968E+01 -0.11780823506E+02 -0.15317422831E+02  0.20066284023E+02  0.51100000000E-03 0.  1.
         12    1    3    3    0    0 -0.11124851892E+02 -0.57079030080E+01 -0.12074570058E+02  0.17382109437E+02  0.00000000000E+00 0. -1.
</event>
<event>
 7    1  0.5972636E-013  0.5052884E+02  0.7816164E-02  0.1300439E+00
        -11   -1    0    0    0    0  0.00000000000E+00  0.00000000000E+00  0.45593999997E+02  0.45594000000E+02  0.51100000000E-03 0.  1.
         11   -1    0    0    0    0 -0.00000000000E+00 -0.00000000000E+00 -0.45593999997E+02  0.45594000000E+02  0.51100000000E-03 0. -1.
    9900012    2    1    2    0    0 -0.37292958905E+01  0.37859435479E+02  0.14350015618E+02  0.50528838045E+02  0.29999933722E+02 0.  0.
         12    1    1    2    0    0  0.37292958905E+01 -0.37859435479E+02 -0.14350015618E+02  0.40659161955E+02  0.00000000000E+00 0. -1.
         11    1    3    3    0    0  0.94103332812E+01  0.29781521724E+01 -0.92232618161E+00  0.99133469965E+01  0.51100000000E-03 0. -1.
        -11    1    3    3    0    0 -0.10667772884E+02  0.22531480885E+02  0.11602075895E+02  0.27496857539E+02  0.51100000000E-03 0.  1.
         12    1    3    3    0    0 -0.24718562878E+01  0.12349802421E+02  0.36702659049E+01  0.13118633510E+02  0.00000000000E+00 0. -1.
</event>
<event>
 7    1  0.5972636E-013  0.5052886E+02  0.7816164E-02  0.1300439E+00
        -11   -1    0    0    0    0  0.00000000000E+00  0.00000000000E+00  0.45593999997E+02  0.45594000000E+02  0.51100000000E-03 0.  1.
         11   -1    0    0    0    0 -0.00000000000E+00 -0.00000000000E+00 -0.45593999997E+02  0.45594000000E+02  0.51100000000E-03 0. -1.
    9900012    2    1    2    0    0 -0.35924728046E+02 -0.12333910895E+02  0.14507035204E+02  0.50528861869E+02  0.30000006137E+02 0.  0.
         12    1    1    2    0    0  0.35924728046E+02  0.12333910895E+02 -0.14507035204E+02  0.40659138131E+02  0.00000000000E+00 0. -1.
         11    1    3    3    0    0 -0.18305902839E+02 -0.48064560480E+01 -0.42132382865E+01  0.19389674459E+02  0.51100000000E-03 0. -1.
        -11    1    3    3    0    0 -0.20360640980E+02 -0.72782994921E+01  0.18353794090E+02  0.28361789478E+02  0.51100000000E-03 0.  1.
        -12    1    3    3    0    0  0.27418157732E+01 -0.24915535508E+00  0.36647939993E+00  0.27773979325E+01  0.00000000000E+00 0.  1.
</event>
<event>
 7    1  0.5972636E-013  0.5052880E+02  0.7816164E-02  0.1300439E+00
        -11   -1    0    0    0    0  0.00000000000E+00  0.00000000000E+00  0.45593999997E+02  0.45594000000E+02  0.51100000000E-03 0. -1.
         11   -1    0    0    0    0 -0.00000000000E+00 -0.00000000000E+00 -0.45593999997E+02  0.45594000000E+02  0.51100000000E-03 0.  1.
    9900012    2    1    2    0    0  0.34698750220E+02  0.14215689253E+02 -0.15718837563E+02  0.50528795113E+02  0.29999803224E+02 0.  0.
         12    1    1    2    0    0 -0.34698750220E+02 -0.14215689253E+02  0.15718837563E+02  0.40659204887E+02  0.00000000000E+00 0. -1.
         11    1    3    3    0    0  0.97074966632E+01 -0.38925902118E+01  0.30205294298E+01  0.10886291762E+02  0.51100000000E-03 0. -1.
        -11    1    3    3    0    0  0.11559918852E+02  0.12361166657E+01 -0.12762962863E+02  0.17264209497E+02  0.51100000000E-03 0.  1.
         12    1    3    3    0    0  0.13431334705E+02  0.16872162799E+02 -0.59764041299E+01  0.22378293853E+02  0.00000000000E+00 0. -1.
</event>
<event>
 7    1  0.5972636E-013  0.5052886E+02  0.7816164E-02  0.1300439E+00
        -11   -1    0    0    0    0  0.00000000000E+00  0.00000000000E+00  0.45593999997E+02  0.45594000000E+02  0.51100000000E-03 0.  1.
         11   -1    0    0    0    0 -0.00000000000E+00 -0.00000000000E+00 -0.45593999997E+02  0.45594000000E+02  0.51100000000E-03 0. -1.
    9900012    2    1    2    0    0  0.25601277542E+02 -0.17627329373E+02  0.26211019535E+02  0.50528859605E+02  0.29999999255E+02 0.  0.
         12    1    1    2    0    0 -0.25601277542E+02  0.17627329373E+02 -0.26211019535E+02  0.40659140395E+02  0.00000000000E+00 0. -1.
         11    1    3    3    0    0  0.17560340642E+01  0.29466458599E+01  0.99204292954E+00  0.35707879934E+01  0.51100000000E-03 0. -1.
        -11    1    3    3    0    0  0.25616928825E+02 -0.13924042122E+02  0.11002431030E+02  0.31163431779E+02  0.51100000000E-03 0.  1.
        -12    1    3    3    0    0 -0.17716853466E+01 -0.66499331112E+01  0.14216545575E+02  0.15794639832E+02  0.00000000000E+00 0.  1.
</event>
<event>
 7    1  0.5972636E-013  0.5052880E+02  0.7816164E-02  0.1300439E+00
        -11   -1    0    0    0    0  0.00000000000E+00  0.00000000000E+00  0.45593999997E+02  0.45594000000E+02  0.51100000000E-03 0. -1.
         11   -1    0    0    0    0 -0.00000000000E+00 -0.00000000000E+00 -0.45593999997E+02  0.45594000000E+02  0.51100000000E-03 0.  1.
    9900012    2    1    2    0    0  0.29577704442E+01 -0.39850883866E+02  0.75052818879E+01  0.50528799232E+02  0.29999815744E+02 0.  0.
         12    1    1    2    0    0 -0.29577704442E+01  0.39850883866E+02 -0.75052818879E+01  0.40659200768E+02  0.00000000000E+00 0. -1.
         11    1    3    3    0    0  0.15496750180E+01  0.29681091536E+01 -0.46249296087E+01  0.57097406908E+01  0.51100000000E-03 0. -1.
        -11    1    3    3    0    0 -0.36684078814E+00 -0.12136794455E+02  0.12072275421E+01  0.12202202687E+02  0.51100000000E-03 0.  1.
         12    1    3    3    0    0  0.17749362144E+01 -0.30682198564E+02  0.10922983955E+02  0.32616855854E+02  0.00000000000E+00 0. -1.
</event>
<event>
 7    1  0.5972636E-013  0.5052886E+02  0.7816164E-02  0.1300439E+00
        -11   -1    0    0    0    0  0.00000000000E+00  0.00000000000E+00  0.45593999997E+02  0.45594000000E+02  0.51100000000E-03 0.  1.
         11   -1    0    0    0    0 -0.00000000000E+00 -0.00000000000E+00 -0.45593999997E+02  0.45594000000E+02  0.51100000000E-03 0. -1.
    9900012    2    1    2    0    0  0.26765633671E+02 -0.10799921307E+02  0.28637881455E+02  0.50528859572E+02  0.29999999156E+02 0.  0.
         12    1    1    2    0    0 -0.26765633671E+02  0.10799921307E+02 -0.28637881455E+02  0.40659140428E+02  0.00000000000E+00 0. -1.
         11    1    3    3    0    0  0.10554995701E+02 -0.99931255040E+01  0.16687604233E+02  0.22130219766E+02  0.51100000000E-03 0.  1.
        -11    1    3    3    0    0  0.18784291633E+02  0.33761865176E+01  0.47238040294E+01  0.19661194580E+02  0.51100000000E-03 0. -1.
        -12    1    3    3    0    0 -0.25736536623E+01 -0.41829823207E+01  0.72264731933E+01  0.87374452263E+01  0.00000000000E+00 0.  1.
</event>
<event>
 7    1  0.5972636E-013  0.5052886E+02  0.7816164E-02  0.1300439E+00
        -11   -1    0    0    0    0  0.00000000000E+00  0.00000000000E+00  0.45593999997E+02  0.45594000000E+02  0.51100000000E-03 0.  1.
         11   -1    0    0    0    0 -0.00000000000E+00 -0.00000000000E+00 -0.45593999997E+02  0.45594000000E+02  0.51100000000E-03 0. -1.
    9900012    2    1    2    0    0 -0.21646311417E+02  0.21157135766E+02  0.27147344243E+02  0.50528862143E+02  0.30000006970E+02 0.  0.
         12    1    1    2    0    0  0.21646311417E+02 -0.21157135766E+02 -0.27147344243E+02  0.40659137857E+02  0.00000000000E+00 0. -1.
         11    1    3    3    0    0  0.26232109085E+01  0.59391242608E+01 -0.25256755483E+01  0.69665967080E+01  0.51100000000E-03 0. -1.
        -11    1    3    3    0    0 -0.16923831948E+02  0.15888236727E+02  0.27253187460E+02  0.35799279059E+02  0.51100000000E-03 0.  1.
        -12    1    3    3    0    0 -0.73456903775E+01 -0.67022522198E+00  0.24198323311E+01  0.77629863764E+01  0.00000000000E+00 0.  1.
</event>
<event>
 7    1  0.5972636E-013  0.5052888E+02  0.7816164E-02  0.1300439E+00
        -11   -1    0    0    0    0  0.00000000000E+00  0.00000000000E+00  0.45593999997E+02  0.45594000000E+02  0.51100000000E-03 0. -1.
         11   -1    0    0    0    0 -0.00000000000E+00 -0.00000000000E+00 -0.45593999997E+02  0.45594000000E+02  0.51100000000E-03 0.  1.
    9900012    2    1    2    0    0  0.72036616532E+01  0.18214331774E+02 -0.35630173269E+02  0.50528882076E+02  0.30000067558E+02 0.  0.
         12    1    1    2    0    0 -0.72036616532E+01 -0.18214331774E+02  0.35630173269E+02  0.40659117924E+02  0.00000000000E+00 0. -1.
         11    1    3    3    0    0  0.56379382284E+00  0.31791506929E+01 -0.63186074622E+00  0.32900016515E+01  0.51100000000E-03 0. -1.
        -11    1    3    3    0    0  0.23028628436E+01 -0.55375178811E+01  0.46103639714E+00  0.60149676957E+01  0.51100000000E-03 0.  1.
        -12    1    3    3    0    0  0.43370049868E+01  0.20572698962E+02 -0.35459348920E+02  0.41223912729E+02  0.00000000000E+00 0.  1.
</event>
<event>
 7    1  0.5972636E-013  0.5052887E+02  0.7816164E-02  0.1300439E+00
        -11   -1    0    0    0    0  0.00000000000E+00  0.00000000000E+00  0.45593999997E+02  0.45594000000E+02  0.51100000000E-03 0.  1.
         11   -1    0    0    0    0 -0.00000000000E+00 -0.00000000000E+00 -0.45593999997E+02  0.45594000000E+02  0.51100000000E-03 0. -1.
    9900012    2    1    2    0    0  0.23099059825E+02  0.31586540263E+02 -0.11040339757E+02  0.50528865816E+02  0.30000018136E+02 0.  0.
         12    1    1    2    0    0 -0.23099059825E+02 -0.31586540263E+02  0.11040339757E+02  0.40659134184E+02  0.00000000000E+00 0. -1.
         11    1    3    3    0    0  0.67733208625E+01  0.28467639848E+02 -0.23599757776E+01  0.29357347972E+02  0.51100000000E-03 0. -1.
        -11    1    3    3    0    0  0.14448572297E+02 -0.12842324109E+01 -0.61265683387E+01  0.15746280011E+02  0.51100000000E-03 0.  1.
        -12    1    3    3    0    0  0.18771666654E+01  0.44031328266E+01 -0.25537956406E+01  0.54252378337E+01  0.00000000000E+00 0.  1.
</event>
<event>
 7    1  0.5972636E-013  0.5052886E+02  0.7816164E-02  0.1300439E+00
        -11   -1    0    0    0    0  0.00000000000E+00  0.00000000000E+00  0.45593999997E+02  0.45594000000E+02  0.51100000000E-03 0.  1.
         11   -1    0    0    0    0 -0.00000000000E+00 -0.00000000000E+00 -0.45593999997E+02  0.45594000000E+02  0.51100000000E-03 0. -1.
    9900012    2    1    2    0    0 -0.24671048501E+02 -0.54571707763E+01  0.31854737544E+02  0.50528860179E+02  0.30000000999E+02 0.  0.
         12    1    1    2    0    0  0.24671048501E+02  0.54571707763E+01 -0.31854737544E+02  0.40659139821E+02  0.00000000000E+00 0. -1.
         11    1    3    3    0    0 -0.19078038823E+01  0.51426921582E+01  0.15343851713E+02  0.16294808496E+02  0.51100000000E-03 0. -1.
        -11    1    3    3    0    0 -0.23669575581E+02 -0.70898071469E+01  0.17727499247E+02  0.30410169408E+02  0.51100000000E-03 0.  1.
         12    1    3    3    0    0  0.90633096284E+00 -0.35100557876E+01 -0.12166134162E+01  0.38238822747E+01  0.00000000000E+00 0. -1.
</event>
<event>
 7    1  0.5972636E-013  0.5052886E+02  0.7816164E-02  0.1300439E+00
        -11   -1    0    0    0    0  0.00000000000E+00  0.00000000000E+00  0.45593999997E+02  0.45594000000E+02  0.51100000000E-03 0. -1.
         11   -1    0    0    0    0 -0.00000000000E+00 -0.00000000000E+00 -0.45593999997E+02  0.45594000000E+02  0.51100000000E-03 0.  1.
    9900012    2    1    2    0    0  0.33238491366E+02 -0.39901152817E+01 -0.23074824510E+02  0.50528857677E+02  0.29999993395E+02 0.  0.
         12    1    1    2    0    0 -0.33238491366E+02  0.39901152817E+01  0.23074824510E+02  0.40659142323E+02  0.00000000000E+00 0. -1.
         11    1    3    3    0    0 -0.27045302390E+01 -0.45005836229E+01  0.29293681437E+01  0.60125647391E+01  0.51100000000E-03 0.  1.
        -11    1    3    3    0    0  0.23764371319E+02  0.11266669753E+01 -0.15264150910E+02  0.28266747707E+02  0.51100000000E-03 0. -1.
        -12    1    3    3    0    0  0.12178650286E+02 -0.61619863414E+00 -0.10740041744E+02  0.16249545231E+02  0.00000000000E+00 0.  1.
</event>
<event>
 7    1  0.5972636E-013  0.5052886E+02  0.7816164E-02  0.1300439E+00
        -11   -1    0    0    0    0  0.00000000000E+00  0.00000000000E+00  0.45593999997E+02  0.45594000000E+02  0.51100000000E-03 0. -1.
         11   -1    0    0    0    0 -0.00000000000E+00 -0.00000000000E+00 -0.45593999997E+02  0.45594000000E+02  0.51100000000E-03 0.  1.
    9900012    2    1    2    0    0  0.65396358756E+01 -0.37284217485E+02 -0.14842025921E+02  0.50528862721E+02  0.30000008725E+02 0.  0.
         12    1    1    2    0    0 -0.65396358756E+01  0.37284217485E+02  0.14842025921E+02  0.40659137279E+02  0.00000000000E+00 0. -1.
         11    1    3    3    0    0 -0.47242004114E+01 -0.16926513789E+02 -0.53938219408E+01  0.18382552978E+02  0.51100000000E-03 0. -1.
        -11    1    3    3    0    0  0.13071015548E+02 -0.81103029233E+01  0.17130554152E+01  0.15477823493E+02  0.51100000000E-03 0.  1.
        -12    1    3    3    0    0 -0.18071792611E+01 -0.12247400773E+02 -0.11161259396E+02  0.16668486250E+02  0.00000000000E+00 0.  1.
</event>
<event>
 7    1  0.5972636E-013  0.5052887E+02  0.7816164E-02  0.1300439E+00
        -11   -1    0    0    0    0  0.00000000000E+00  0.00000000000E+00  0.45593999997E+02  0.45594000000E+02  0.51100000000E-03 0. -1.
         11   -1    0    0    0    0 -0.00000000000E+00 -0.00000000000E+00 -0.45593999997E+02  0.45594000000E+02  0.51100000000E-03 0.  1.
    9900012    2    1    2    0    0  0.28845856380E+02  0.91459026782E+01 -0.27155738832E+02  0.50528866738E+02  0.30000020937E+02 0.  0.
         12    1    1    2    0    0 -0.28845856380E+02 -0.91459026782E+01  0.27155738832E+02  0.40659133262E+02  0.00000000000E+00 0. -1.
         11    1    3    3    0    0  0.71171565341E+01 -0.10327442674E+02 -0.42066850310E+01  0.13228990457E+02  0.51100000000E-03 0. -1.
        -11    1    3    3    0    0  0.11453780067E+02  0.96653413006E+01 -0.95381076286E+01  0.17764667114E+02  0.51100000000E-03 0.  1.
         12    1    3    3    0    0  0.10274919779E+02  0.98080040515E+01 -0.13410946172E+02  0.19535209166E+02  0.00000000000E+00 0. -1.
</event>
<event>
 7    1  0.5972636E-013  0.5052887E+02  0.7816164E-02  0.1300439E+00
        -11   -1    0    0    0    0  0.00000000000E+00  0.00000000000E+00  0.45593999997E+02  0.45594000000E+02  0.51100000000E-03 0.  1.
         11   -1    0    0    0    0 -0.00000000000E+00 -0.00000000000E+00 -0.45593999997E+02  0.45594000000E+02  0.51100000000E-03 0. -1.
    9900012    2    1    2    0    0  0.23929564562E+02  0.47299037549E+01  0.32529510498E+02  0.50528866919E+02  0.30000021487E+02 0.  0.
         12    1    1    2    0    0 -0.23929564562E+02 -0.47299037549E+01 -0.32529510498E+02  0.40659133081E+02  0.00000000000E+00 0. -1.
         11    1    3    3    0    0 -0.36504485485E+01  0.65707140376E+01  0.22390043375E+01  0.78430350155E+01  0.51100000000E-03 0. -1.
        -11    1    3    3    0    0  0.26762267092E+02  0.70856113635E+00  0.29620173653E+02  0.39925877401E+02  0.51100000000E-03 0.  1.
        -12    1    3    3    0    0  0.81774601846E+00 -0.25493714190E+01  0.67033250803E+00  0.27599545022E+01  0.00000000000E+00 0.  1.
</event>
<event>
 7    1  0.5972636E-013  0.5052886E+02  0.7816164E-02  0.1300439E+00
        -11   -1    0    0    0    0  0.00000000000E+00  0.00000000000E+00  0.45593999997E+02  0.45594000000E+02  0.51100000000E-03 0.  1.
         11   -1    0    0    0    0 -0.00000000000E+00 -0.00000000000E+00 -0.45593999997E+02  0.45594000000E+02  0.51100000000E-03 0. -1.
    9900012    2    1    2    0    0  0.13137369770E+01  0.83265124107E+01  0.39775733582E+02  0.50528859628E+02  0.29999999327E+02 0.  0.
         12    1    1    2    0    0 -0.13137369770E+01 -0.83265124107E+01 -0.39775733582E+02  0.40659140372E+02  0.00000000000E+00 0. -1.
         11    1    3    3    0    0 -0.54608840595E+01  0.37290839086E+01  0.65863344921E+00  0.66453833441E+01  0.51100000000E-03 0. -1.
        -11    1    3    3    0    0  0.12978555426E+02  0.20388033223E+01  0.24525466059E+02  0.27822618597E+02  0.51100000000E-03 0.  1.
        -12    1    3    3    0    0 -0.62039343891E+01  0.25586251798E+01  0.14591634073E+02  0.16060857687E+02  0.00000000000E+00 0.  1.
</event>
<event>
 7    1  0.5972636E-013  0.5052886E+02  0.7816164E-02  0.1300439E+00
        -11   -1    0    0    0    0  0.00000000000E+00  0.00000000000E+00  0.45593999997E+02  0.45594000000E+02  0.51100000000E-03 0.  1.
         11   -1    0    0    0    0 -0.00000000000E+00 -0.00000000000E+00 -0.45593999997E+02  0.45594000000E+02  0.51100000000E-03 0. -1.
    9900012    2    1    2    0    0 -0.40567065560E+01 -0.40450941186E+02 -0.65566058072E+00  0.50528863244E+02  0.30000010318E+02 0.  0.
         12    1    1    2    0    0  0.40567065560E+01  0.40450941186E+02  0.65566058072E+00  0.40659136756E+02  0.00000000000E+00 0. -1.
         11    1    3    3    0    0 -0.38734986512E+01 -0.17563483595E+02  0.10121722189E+02  0.20638052430E+02  0.51100000000E-03 0. -1.
        -11    1    3    3    0    0 -0.52623156079E+00 -0.25225706191E+02 -0.10984281304E+02  0.27518495753E+02  0.51100000000E-03 0.  1.
        -12    1    3    3    0    0  0.34302365605E+00  0.23382486001E+01  0.20689853452E+00  0.23723150609E+01  0.00000000000E+00 0.  1.
</event>
<event>
 7    1  0.5972636E-013  0.5052886E+02  0.7816164E-02  0.1300439E+00
        -11   -1    0    0    0    0  0.00000000000E+00  0.00000000000E+00  0.45593999997E+02  0.45594000000E+02  0.51100000000E-03 0.  1.
         11   -1    0    0    0    0 -0.00000000000E+00 -0.00000000000E+00 -0.45593999997E+02  0.45594000000E+02  0.51100000000E-03 0. -1.
    9900012    2    1    2    0    0  0.24808768858E+02  0.20176906953E+02  0.25111411750E+02  0.50528860971E+02  0.30000003408E+02 0.  0.
         12    1    1    2    0    0 -0.24808768858E+02 -0.20176906953E+02 -0.25111411750E+02  0.40659139029E+02  0.00000000000E+00 0. -1.
         11    1    3    3    0    0 -0.10761257014E+01  0.35806486709E+00  0.27222303897E+01  0.29490329822E+01  0.51100000000E-03 0. -1.
        -11    1    3    3    0    0  0.27392066617E+02  0.79807064736E+01  0.21283535874E+02  0.35595026183E+02  0.51100000000E-03 0.  1.
        -12    1    3    3    0    0 -0.15071720577E+01  0.11838135613E+02  0.11056454863E+01  0.11984801806E+02  0.00000000000E+00 0.  1.
</event>
<event>
 7    1  0.5972636E-013  0.5052885E+02  0.7816164E-02  0.1300439E+00
        -11   -1    0    0    0    0  0.00000000000E+00  0.00000000000E+00  0.45593999997E+02  0.45594000000E+02  0.51100000000E-03 0.  1.
         11   -1    0    0    0    0 -0.00000000000E+00 -0.00000000000E+00 -0.45593999997E+02  0.45594000000E+02  0.51100000000E-03 0. -1.
    9900012    2    1    2    0    0  0.99019943648E+01 -0.33023531902E+02  0.21553724367E+02  0.50528853602E+02  0.29999981010E+02 0.  0.
         12    1    1    2    0    0 -0.99019943648E+01  0.33023531902E+02 -0.21553724367E+02  0.40659146398E+02  0.00000000000E+00 0. -1.
         11    1    3    3    0    0  0.89859008746E+01 -0.71232917956E+01 -0.29360765769E+01  0.11836732930E+02  0.51100000000E-03 0. -1.
        -11    1    3    3    0    0 -0.41722982374E+01 -0.18108847799E+02  0.90620164362E+01  0.20675071544E+02  0.51100000000E-03 0.  1.
         12    1    3    3    0    0  0.50883917276E+01 -0.77913923068E+01  0.15427784508E+02  0.18017049128E+02  0.00000000000E+00 0. -1.
</event>
<event>
 7    1  0.5972636E-013  0.5052887E+02  0.7816164E-02  0.1300439E+00
        -11   -1    0    0    0    0  0.00000000000E+00  0.00000000000E+00  0.45593999997E+02  0.45594000000E+02  0.51100000000E-03 0. -1.
         11   -1    0    0    0    0 -0.00000000000E+00 -0.00000000000E+00 -0.45593999997E+02  0.45594000000E+02  0.51100000000E-03 0.  1.
    9900012    2    1    2    0    0  0.15978864490E+02  0.24396982921E+02 -0.28330689196E+02  0.50528870197E+02  0.30000031450E+02 0.  0.
         12    1    1    2    0    0 -0.15978864490E+02 -0.24396982921E+02  0.28330689196E+02  0.40659129803E+02  0.00000000000E+00 0. -1.
         11    1    3    3    0    0 -0.70230600901E+01  0.28216739531E+01 -0.13872074982E+02  0.15802521365E+02  0.51100000000E-03 0. -1.
        -11    1    3    3    0    0  0.15417121268E+02  0.13667480165E+02 -0.99075245082E+01  0.22861467241E+02  0.51100000000E-03 0.  1.
         12    1    3    3    0    0  0.75848033124E+01  0.79078288026E+01 -0.45510897064E+01  0.11864881591E+02  0.00000000000E+00 0. -1.
</event>
<event>
 7    1  0.5972636E-013  0.5052886E+02  0.7816164E-02  0.1300439E+00
        -11   -1    0    0    0    0  0.00000000000E+00  0.00000000000E+00  0.45593999997E+02  0.45594000000E+02  0.51100000000E-03 0.  1.
         11   -1    0    0    0    0 -0.00000000000E+00 -0.00000000000E+00 -0.45593999997E+02  0.45594000000E+02  0.51100000000E-03 0. -1.
    9900012    2    1    2    0    0 -0.96201035358E+01  0.27144583593E+02  0.28701758198E+02  0.50528859157E+02  0.29999997893E+02 0.  0.
         12    1    1    2    0    0  0.96201035358E+01 -0.27144583593E+02 -0.28701758198E+02  0.40659140843E+02  0.00000000000E+00 0. -1.
         11    1    3    3    0    0  0.48685590265E+01  0.15874411970E+02  0.26717840637E+02  0.31456999713E+02  0.51100000000E-03 0. -1.
        -11    1    3    3    0    0 -0.11736836174E+02  0.11127160440E+02  0.21286785501E+01  0.16312519592E+02  0.51100000000E-03 0.  1.
         12    1    3    3    0    0 -0.27518263887E+01  0.14301118259E+00 -0.14476098920E+00  0.27593398515E+01  0.00000000000E+00 0. -1.
</event>
<event>
 7    1  0.5972636E-013  0.5052887E+02  0.7816164E-02  0.1300439E+00
        -11   -1    0    0    0    0  0.00000000000E+00  0.00000000000E+00  0.45593999997E+02  0.45594000000E+02  0.51100000000E-03 0.  1.
         11   -1    0    0    0    0 -0.00000000000E+00 -0.00000000000E+00 -0.45593999997E+02  0.45594000000E+02  0.51100000000E-03 0. -1.
    9900012    2    1    2    0    0  0.31122513914E+02 -0.20961510163E+02  0.15657876079E+02  0.50528869858E+02  0.30000030419E+02 0.  0.
         12    1    1    2    0    0 -0.31122513914E+02  0.20961510163E+02 -0.15657876079E+02  0.40659130142E+02  0.00000000000E+00 0. -1.
         11    1    3    3    0    0  0.56814396374E+01 -0.25773425730E+01 -0.31979415511E+01  0.70105835361E+01  0.51100000000E-03 0. -1.
        -11    1    3    3    0    0  0.48463885466E+01 -0.22550883023E+01  0.16394418507E+02  0.17243835526E+02  0.51100000000E-03 0.  1.
        -12    1    3    3    0    0  0.20594685730E+02 -0.16129079288E+02  0.24613991231E+01  0.26274450796E+02  0.00000000000E+00 0.  1.
</event>
<event>
 7    1  0.5972636E-013  0.5052881E+02  0.7816164E-02  0.1300439E+00
        -11   -1    0    0    0    0  0.00000000000E+00  0.00000000000E+00  0.45593999997E+02  0.45594000000E+02  0.51100000000E-03 0.  1.
         11   -1    0    0    0    0 -0.00000000000E+00 -0.00000000000E+00 -0.45593999997E+02  0.45594000000E+02  0.51100000000E-03 0. -1.
    9900012    2    1    2    0    0  0.33831615648E+02 -0.10380256539E+02  0.20021034953E+02  0.50528809357E+02  0.29999846520E+02 0.  0.
         12    1    1    2    0    0 -0.33831615648E+02  0.10380256539E+02 -0.20021034953E+02  0.40659190643E+02  0.00000000000E+00 0. -1.
         11    1    3    3    0    0 -0.29759144571E+01 -0.98110271690E+00  0.48171801984E+01  0.57466385585E+01  0.51100000000E-03 0. -1.
        -11    1    3    3    0    0  0.38062694042E+02 -0.61184047883E+01  0.14570351866E+02  0.41212846403E+02  0.51100000000E-03 0.  1.
        -12    1    3    3    0    0 -0.12551639361E+01 -0.32807490337E+01  0.63350288857E+00  0.35693243953E+01  0.00000000000E+00 0.  1.
</event>
<event>
 7    1  0.5972636E-013  0.5052885E+02  0.7816164E-02  0.1300439E+00
        -11   -1    0    0    0    0  0.00000000000E+00  0.00000000000E+00  0.45593999997E+02  0.45594000000E+02  0.51100000000E-03 0.  1.
         11   -1    0    0    0    0 -0.00000000000E+00 -0.00000000000E+00 -0.45593999997E+02  0.45594000000E+02  0.51100000000E-03 0. -1.
    9900012    2    1    2    0    0  0.83605720243E+01 -0.39748777501E+02  0.18170706962E+01  0.50528853141E+02  0.29999979607E+02 0.  0.
         12    1    1    2    0    0 -0.83605720243E+01  0.39748777501E+02 -0.18170706962E+01  0.40659146859E+02  0.00000000000E+00 0. -1.
         11    1    3    3    0    0  0.10125484954E+02 -0.90354820564E+01  0.64061057453E+01  0.15006784220E+02  0.51100000000E-03 0. -1.
        -11    1    3    3    0    0  0.36025661020E+00 -0.30606800820E+02 -0.16103617798E+00  0.30609344556E+02  0.51100000000E-03 0.  1.
        -12    1    3    3    0    0 -0.21251695402E+01 -0.10649462512E+00 -0.44279988711E+01  0.49127243646E+01  0.00000000000E+00 0.  1.
</event>
<event>
 7    1  0.5972636E-013  0.5052883E+02  0.7816164E-02  0.1300439E+00
        -11   -1    0    0    0    0  0.00000000000E+00  0.00000000000E+00  0.45593999997E+02  0.45594000000E+02  0.51100000000E-03 0.  1.
         11   -1    0    0    0    0 -0.00000000000E+00 -0.00000000000E+00 -0.45593999997E+02  0.45594000000E+02  0.51100000000E-03 0. -1.
    9900012    2    1    2    0    0 -0.38253239823E+02 -0.12845964102E+02 -0.49838464676E+01  0.50528832814E+02  0.29999917820E+02 0.  0.
         12    1    1    2    0    0  0.38253239823E+02  0.12845964102E+02  0.49838464676E+01  0.40659167186E+02  0.00000000000E+00 0. -1.
         11    1    3    3    0    0  0.34519501472E+01 -0.18707453056E+01 -0.21091815652E+01  0.44569378449E+01  0.51100000000E-03 0. -1.
        -11    1    3    3    0    0 -0.42774532972E+02 -0.11665764026E+02 -0.37982790650E+01  0.44499187020E+02  0.51100000000E-03 0.  1.
        -12    1    3    3    0    0  0.10693430019E+01  0.69054523017E+00  0.92361416268E+00  0.15727079488E+01  0.00000000000E+00 0.  1.
</event>
<event>
 7    1  0.5972636E-013  0.5052888E+02  0.7816164E-02  0.1300439E+00
        -11   -1    0    0    0    0  0.00000000000E+00  0.00000000000E+00  0.45593999997E+02  0.45594000000E+02  0.51100000000E-03 0.  1.
         11   -1    0    0    0    0 -0.00000000000E+00 -0.00000000000E+00 -0.45593999997E+02  0.45594000000E+02  0.51100000000E-03 0. -1.
    9900012    2    1    2    0    0  0.19422709235E+02 -0.53987580126E+01  0.35309708788E+02  0.50528883473E+02  0.30000071804E+02 0.  0.
         12    1    1    2    0    0 -0.19422709235E+02  0.53987580126E+01 -0.35309708788E+02  0.40659116527E+02  0.00000000000E+00 0. -1.
         11    1    3    3    0    0  0.44805386862E+00 -0.15261816229E+01 -0.30260504923E+01  0.34186202565E+01  0.51100000000E-03 0. -1.
        -11    1    3    3    0    0  0.21432430021E+02 -0.69416096615E+01  0.27301623522E+02  0.35396520288E+02  0.51100000000E-03 0.  1.
        -12    1    3    3    0    0 -0.24577746542E+01  0.30690332718E+01  0.11034135758E+02  0.11713742929E+02  0.00000000000E+00 0.  1.
</event>
<event>
 7    1  0.5972636E-013  0.5052886E+02  0.7816164E-02  0.1300439E+00
        -11   -1    0    0    0    0  0.00000000000E+00  0.00000000000E+00  0.45593999997E+02  0.45594000000E+02  0.51100000000E-03 0.  1.
         11   -1    0    0    0    0 -0.00000000000E+00 -0.00000000000E+00 -0.45593999997E+02  0.45594000000E+02  0.51100000000E-03 0. -1.
    9900012    2    1    2    0    0 -0.33056150982E+02 -0.10230638478E+02  0.21349251547E+02  0.50528860523E+02  0.30000002045E+02 0.  0.
         12    1    1    2    0    0  0.33056150982E+02  0.10230638478E+02 -0.21349251547E+02  0.40659139477E+02  0.00000000000E+00 0. -1.
         11    1    3    3    0    0 -0.18226978473E+02  0.74912496916E+01  0.10931257018E+01  0.19736678805E+02  0.51100000000E-03 0. -1.
        -11    1    3    3    0    0 -0.65809634777E+01 -0.80386916887E+01  0.78214414482E+01  0.13004022107E+02  0.51100000000E-03 0.  1.
         12    1    3    3    0    0 -0.82482090317E+01 -0.96831964809E+01  0.12434684397E+02  0.17788159611E+02  0.00000000000E+00 0. -1.
</event>
<event>
 7    1  0.5972636E-013  0.5052887E+02  0.7816164E-02  0.1300439E+00
        -11   -1    0    0    0    0  0.00000000000E+00  0.00000000000E+00  0.45593999997E+02  0.45594000000E+02  0.51100000000E-03 0. -1.
         11   -1    0    0    0    0 -0.00000000000E+00 -0.00000000000E+00 -0.45593999997E+02  0.45594000000E+02  0.51100000000E-03 0.  1.
    9900012    2    1    2    0    0 -0.61572687838E-02  0.39473222293E+02 -0.97482897240E+01  0.50528874719E+02  0.30000045195E+02 0.  0.
         12    1    1    2    0    0  0.61572687838E-02 -0.39473222293E+02  0.97482897240E+01  0.40659125281E+02  0.00000000000E+00 0. -1.
         11    1    3    3    0    0  0.89267448302E+01  0.28937491935E+02 -0.26700514886E+01  0.30400565586E+02  0.51100000000E-03 0. -1.
        -11    1    3    3    0    0 -0.11851094053E+02  0.92357808998E+01 -0.76855062756E+01  0.16876465449E+02  0.51100000000E-03 0.  1.
         12    1    3    3    0    0  0.29181919536E+01  0.12999494580E+01  0.60726804023E+00  0.32518436838E+01  0.00000000000E+00 0. -1.
</event>
<event>
 7    1  0.5972636E-013  0.5052886E+02  0.7816164E-02  0.1300439E+00
        -11   -1    0    0    0    0  0.00000000000E+00  0.00000000000E+00  0.45593999997E+02  0.45594000000E+02  0.51100000000E-03 0.  1.
         11   -1    0    0    0    0 -0.00000000000E+00 -0.00000000000E+00 -0.45593999997E+02  0.45594000000E+02  0.51100000000E-03 0. -1.
    9900012    2    1    2    0    0 -0.17616739649E+02 -0.25731011423E+02  0.26090826996E+02  0.50528859354E+02  0.29999998493E+02 0.  0.
         12    1    1    2    0    0  0.17616739649E+02  0.25731011423E+02 -0.26090826996E+02  0.40659140646E+02  0.00000000000E+00 0. -1.
         11    1    3    3    0    0 -0.10168413292E+02 -0.12846040345E+02  0.24721279848E+01  0.16568910600E+02  0.51100000000E-03 0. -1.
        -11    1    3    3    0    0  0.61016313108E+01 -0.39261575104E+01  0.33677187705E+01  0.79991341674E+01  0.51100000000E-03 0.  1.
        -12    1    3    3    0    0 -0.13549957667E+02 -0.89588135680E+01  0.20250980241E+02  0.25960814587E+02  0.00000000000E+00 0.  1.
</event>
<event>
 7    1  0.5972636E-013  0.5052887E+02  0.7816164E-02  0.1300439E+00
        -11   -1    0    0    0    0  0.00000000000E+00  0.00000000000E+00  0.45593999997E+02  0.45594000000E+02  0.51100000000E-03 0.  1.
         11   -1    0    0    0    0 -0.00000000000E+00 -0.00000000000E+00 -0.45593999997E+02  0.45594000000E+02  0.51100000000E-03 0. -1.
    9900012    2    1    2    0    0  0.24698206463E+02  0.16876574667E+02  0.27538061033E+02  0.50528868425E+02  0.30000026066E+02 0.  0.
         12    1    1    2    0    0 -0.24698206463E+02 -0.16876574667E+02 -0.27538061033E+02  0.40659131575E+02  0.00000000000E+00 0. -1.
         11    1    3    3    0    0  0.11820855357E+02 -0.37006787517E+01 -0.98877393293E+00  0.12425993672E+02  0.51100000000E-03 0. -1.
        -11    1    3    3    0    0  0.43800856720E+01  0.13274473267E+02  0.17302477786E+02  0.22243482839E+02  0.51100000000E-03 0.  1.
         12    1    3    3    0    0  0.84972654344E+01  0.73027801512E+01  0.11224357179E+02  0.15859391914E+02  0.00000000000E+00 0. -1.
</event>
<event>
 7    1  0.5972636E-013  0.5052886E+02  0.7816164E-02  0.1300439E+00
        -11   -1    0    0    0    0  0.00000000000E+00  0.00000000000E+00  0.45593999997E+02  0.45594000000E+02  0.51100000000E-03 0.  1.
         11   -1    0    0    0    0 -0.00000000000E+00 -0.00000000000E+00 -0.45593999997E+02  0.45594000000E+02  0.51100000000E-03 0. -1.
    9900012    2    1    2    0    0  0.15289647916E+02 -0.94433580433E+01  0.36472116667E+02  0.50528860330E+02  0.30000001460E+02 0.  0.
         12    1    1    2    0    0 -0.15289647916E+02  0.94433580433E+01 -0.36472116667E+02  0.40659139670E+02  0.00000000000E+00 0. -1.
         11    1    3    3    0    0  0.36176618702E+01  0.10219578011E+01  0.36813416500E+01  0.52615731259E+01  0.51100000000E-03 0. -1.
        -11    1    3    3    0    0 -0.10988847676E+01 -0.74975082113E+00 -0.44883399352E+01  0.46813320392E+01  0.51100000000E-03 0.  1.
        -12    1    3    3    0    0  0.12770870813E+02 -0.97155650233E+01  0.37279114952E+02  0.40585955165E+02  0.00000000000E+00 0.  1.
</event>
<event>
 7    1  0.5972636E-013  0.5052885E+02  0.7816164E-02  0.1300439E+00
        -11   -1    0    0    0    0  0.00000000000E+00  0.00000000000E+00  0.45593999997E+02  0.45594000000E+02  0.51100000000E-03 0.  1.
         11   -1    0    0    0    0 -0.00000000000E+00 -0.00000000000E+00 -0.45593999997E+02  0.45594000000E+02  0.51100000000E-03 0. -1.
    9900012    2    1    2    0    0  0.15564311023E+02  0.14888249908E+02  0.34485633556E+02  0.50528847467E+02  0.29999962362E+02 0.  0.
         12    1    1    2    0    0 -0.15564311023E+02 -0.14888249908E+02 -0.34485633556E+02  0.40659152533E+02  0.00000000000E+00 0. -1.
         11    1    3    3    0    0 -0.21833936086E+01 -0.13213029701E+01  0.18569408836E+02  0.18743958866E+02  0.51100000000E-03 0.  1.
        -11    1    3    3    0    0  0.13288851165E+02  0.51825973415E+01  0.13516968303E+02  0.19650987580E+02  0.51100000000E-03 0. -1.
         12    1    3    3    0    0  0.44588534667E+01  0.11026955537E+02  0.23992564162E+01  0.12133901021E+02  0.00000000000E+00 0. -1.
</event>
<event>
 7    1  0.5972636E-013  0.5052888E+02  0.7816164E-02  0.1300439E+00
        -11   -1    0    0    0    0  0.00000000000E+00  0.00000000000E+00  0.45593999997E+02  0.45594000000E+02  0.51100000000E-03 0. -1.
         11   -1    0    0    0    0 -0.00000000000E+00 -0.00000000000E+00 -0.45593999997E+02  0.45594000000E+02  0.51100000000E-03 0.  1.
    9900012    2    1    2    0    0 -0.18912635739E+02 -0.25923798430E+02 -0.24968632302E+02  0.50528883990E+02  0.30000073377E+02 0.  0.
         12    1    1    2    0    0  0.18912635739E+02  0.25923798430E+02  0.24968632302E+02  0.40659116010E+02  0.00000000000E+00 0. -1.
         11    1    3    3    0    0 -0.18891421128E+02 -0.30938482838E+01 -0.11012661334E+02  0.22084754908E+02  0.51100000000E-03 0. -1.
        -11    1    3    3    0    0 -0.77352685488E+00 -0.32889864804E+01 -0.68494391788E+01  0.76374467716E+01  0.51100000000E-03 0.  1.
         12    1    3    3    0    0  0.75231224364E+00 -0.19540963666E+02 -0.71065317892E+01  0.20806682311E+02  0.00000000000E+00 0. -1.
</event>
<event>
 7    1  0.5972636E-013  0.5052886E+02  0.7816164E-02  0.1300439E+00
        -11   -1    0    0    0    0  0.00000000000E+00  0.00000000000E+00  0.45593999997E+02  0.45594000000E+02  0.51100000000E-03 0.  1.
         11   -1    0    0    0    0 -0.00000000000E+00 -0.00000000000E+00 -0.45593999997E+02  0.45594000000E+02  0.51100000000E-03 0. -1.
    9900012    2    1    2    0    0 -0.24468694788E+02  0.32471731278E+02 -0.18802825808E+00  0.50528859435E+02  0.29999998740E+02 0.  0.
         12    1    1    2    0    0  0.24468694788E+02 -0.32471731278E+02  0.18802825808E+00  0.40659140565E+02  0.00000000000E+00 0. -1.
         11    1    3    3    0    0 -0.15246734293E+02  0.14119684423E+02 -0.85178414179E+01  0.22458450914E+02  0.51100000000E-03 0. -1.
        -11    1    3    3    0    0 -0.10255116967E+02  0.40102135541E+01  0.81344411483E+01  0.13690082900E+02  0.51100000000E-03 0.  1.
        -12    1    3    3    0    0  0.10331564720E+01  0.14341833301E+02  0.19537201153E+00  0.14380325621E+02  0.00000000000E+00 0.  1.
</event>
<event>
 7    1  0.5972636E-013  0.5052886E+02  0.7816164E-02  0.1300439E+00
        -11   -1    0    0    0    0  0.00000000000E+00  0.00000000000E+00  0.45593999997E+02  0.45594000000E+02  0.51100000000E-03 0.  1.
         11   -1    0    0    0    0 -0.00000000000E+00 -0.00000000000E+00 -0.45593999997E+02  0.45594000000E+02  0.51100000000E-03 0. -1.
    9900012    2    1    2    0    0 -0.39869672178E+02  0.10355713559E+01  0.79058531836E+01  0.50528859795E+02  0.29999999833E+02 0.  0.
         12    1    1    2    0    0  0.39869672178E+02 -0.10355713559E+01 -0.79058531836E+01  0.40659140205E+02  0.00000000000E+00 0. -1.
         11    1    3    3    0    0  0.25679259976E+01 -0.34361308322E+01 -0.34767173405E+00  0.43037326730E+01  0.51100000000E-03 0.  1.
        -11    1    3    3    0    0 -0.40583438314E+02  0.76161904090E+01  0.94946851677E+01  0.42369456787E+02  0.51100000000E-03 0. -1.
         12    1    3    3    0    0 -0.18541598615E+01 -0.31444882210E+01 -0.12411602501E+01  0.38556703347E+01  0.00000000000E+00 0. -1.
</event>
<event>
 7    1  0.5972636E-013  0.5052888E+02  0.7816164E-02  0.1300439E+00
        -11   -1    0    0    0    0  0.00000000000E+00  0.00000000000E+00  0.45593999997E+02  0.45594000000E+02  0.51100000000E-03 0.  1.
         11   -1    0    0    0    0 -0.00000000000E+00 -0.00000000000E+00 -0.45593999997E+02  0.45594000000E+02  0.51100000000E-03 0. -1.
    9900012    2    1    2    0    0 -0.36855238783E+02  0.16391759346E+02  0.51152427469E+01  0.50528879147E+02  0.30000058654E+02 0.  0.
         12    1    1    2    0    0  0.36855238783E+02 -0.16391759346E+02 -0.51152427469E+01  0.40659120853E+02  0.00000000000E+00 0. -1.
         11    1    3    3    0    0 -0.61420629963E+01  0.14537099098E+02 -0.35153296107E+01  0.16168170292E+02  0.51100000000E-03 0. -1.
        -11    1    3    3    0    0 -0.51463444675E+01 -0.14090291427E+01  0.66278217131E+01  0.85087158506E+01  0.51100000000E-03 0.  1.
         12    1    3    3    0    0 -0.25566831319E+02  0.32636893899E+01  0.20027506444E+01  0.25851993004E+02  0.00000000000E+00 0. -1.
</event>
<event>
 7    1  0.5972636E-013  0.5052886E+02  0.7816164E-02  0.1300439E+00
        -11   -1    0    0    0    0  0.00000000000E+00  0.00000000000E+00  0.45593999997E+02  0.45594000000E+02  0.51100000000E-03 0.  1.
         11   -1    0    0    0    0 -0.00000000000E+00 -0.00000000000E+00 -0.45593999997E+02  0.45594000000E+02  0.51100000000E-03 0. -1.
    9900012    2    1    2    0    0 -0.15294693912E+02  0.36485466438E+02  0.93834076541E+01  0.50528864960E+02  0.30000015531E+02 0.  0.
         12    1    1    2    0    0  0.15294693912E+02 -0.36485466438E+02 -0.93834076541E+01  0.40659135040E+02  0.00000000000E+00 0. -1.
         11    1    3    3    0    0 -0.80632266575E+01  0.16635144840E+02 -0.87967129907E+01  0.20472562802E+02  0.51100000000E-03 0. -1.
        -11    1    3    3    0    0 -0.32053378316E+01  0.12708374011E+02  0.40463741467E+01  0.13716781861E+02  0.51100000000E-03 0.  1.
         12    1    3    3    0    0 -0.40261294227E+01  0.71419475869E+01  0.14133746498E+02  0.16339520297E+02  0.00000000000E+00 0. -1.
</event>
<event>
 7    1  0.5972636E-013  0.5052886E+02  0.7816164E-02  0.1300439E+00
        -11   -1    0    0    0    0  0.00000000000E+00  0.00000000000E+00  0.45593999997E+02  0.45594000000E+02  0.51100000000E-03 0. -1.
         11   -1    0    0    0    0 -0.00000000000E+00 -0.00000000000E+00 -0.45593999997E+02  0.45594000000E+02  0.51100000000E-03 0.  1.
    9900012    2    1    2    0    0 -0.63118091230E+01  0.39130517301E+02 -0.90625311708E+01  0.50528858471E+02  0.29999995810E+02 0.  0.
         12    1    1    2    0    0  0.63118091230E+01 -0.39130517301E+02  0.90625311708E+01  0.40659141529E+02  0.00000000000E+00 0. -1.
         11    1    3    3    0    0  0.31765249248E+01  0.34277156850E+02 -0.17786547673E+01  0.34469949309E+02  0.51100000000E-03 0. -1.
        -11    1    3    3    0    0  0.81515487495E+00  0.38677785026E+01 -0.17638082527E+01  0.43284186291E+01  0.51100000000E-03 0.  1.
         12    1    3    3    0    0 -0.10303488923E+02  0.98558194759E+00 -0.55200681508E+01  0.11730490533E+02  0.00000000000E+00 0. -1.
</event>
<event>
 7    1  0.5972636E-013  0.5052886E+02  0.7816164E-02  0.1300439E+00
        -11   -1    0    0    0    0  0.00000000000E+00  0.00000000000E+00  0.45593999997E+02  0.45594000000E+02  0.51100000000E-03 0. -1.
         11   -1    0    0    0    0 -0.00000000000E+00 -0.00000000000E+00 -0.45593999997E+02  0.45594000000E+02  0.51100000000E-03 0.  1.
    9900012    2    1    2    0    0  0.19152109063E+02  0.13321008308E+02 -0.33300346371E+02  0.50528860655E+02  0.30000002446E+02 0.  0.
         12    1    1    2    0    0 -0.19152109063E+02 -0.13321008308E+02  0.33300346371E+02  0.40659139345E+02  0.00000000000E+00 0. -1.
         11    1    3    3    0    0  0.25041207756E+01  0.61083188215E+00  0.27326572338E+01  0.37564813677E+01  0.51100000000E-03 0. -1.
        -11    1    3    3    0    0  0.17042169792E+02 -0.51332313482E-01 -0.21224545432E+02  0.27219836797E+02  0.51100000000E-03 0.  1.
        -12    1    3    3    0    0 -0.39418150451E+00  0.12761508739E+02 -0.14808458173E+02  0.19552542490E+02  0.00000000000E+00 0.  1.
</event>
<event>
 7    1  0.5972636E-013  0.5052887E+02  0.7816164E-02  0.1300439E+00
        -11   -1    0    0    0    0  0.00000000000E+00  0.00000000000E+00  0.45593999997E+02  0.45594000000E+02  0.51100000000E-03 0. -1.
         11   -1    0    0    0    0 -0.00000000000E+00 -0.00000000000E+00 -0.45593999997E+02  0.45594000000E+02  0.51100000000E-03 0.  1.
    9900012    2    1    2    0    0 -0.21893199085E+02  0.23751405355E+02 -0.24692570564E+02  0.50528874781E+02  0.30000045384E+02 0.  0.
         12    1    1    2    0    0  0.21893199085E+02 -0.23751405355E+02  0.24692570564E+02  0.40659125219E+02  0.00000000000E+00 0. -1.
         11    1    3    3    0    0  0.37662524590E+01  0.13888820635E+02 -0.62277065159E+01  0.15680188931E+02  0.51100000000E-03 0. -1.
        -11    1    3    3    0    0 -0.22492423971E+02  0.90021252007E+01 -0.10828229861E+02  0.26536728442E+02  0.51100000000E-03 0.  1.
         12    1    3    3    0    0 -0.31670275731E+01  0.86045951962E+00 -0.76366341870E+01  0.83119574072E+01  0.00000000000E+00 0. -1.
</event>
<event>
 7    1  0.5972636E-013  0.5052886E+02  0.7816164E-02  0.1300439E+00
        -11   -1    0    0    0    0  0.00000000000E+00  0.00000000000E+00  0.45593999997E+02  0.45594000000E+02  0.51100000000E-03 0.  1.
         11   -1    0    0    0    0 -0.00000000000E+00 -0.00000000000E+00 -0.45593999997E+02  0.45594000000E+02  0.51100000000E-03 0. -1.
    9900012    2    1    2    0    0 -0.47236721038E+01  0.37330461582E+02  0.15404194382E+02  0.50528860257E+02  0.30000001238E+02 0.  0.
         12    1    1    2    0    0  0.47236721038E+01 -0.37330461582E+02 -0.15404194382E+02  0.40659139743E+02  0.00000000000E+00 0. -1.
         11    1    3    3    0    0  0.35324480111E+01  0.22162052983E+01 -0.13893145447E+01  0.43954465121E+01  0.51100000000E-03 0. -1.
        -11    1    3    3    0    0 -0.15823097806E+02  0.29595104969E+02  0.13970812441E+02  0.36351399737E+02  0.51100000000E-03 0.  1.
        -12    1    3    3    0    0  0.75669776910E+01  0.55191513147E+01  0.28226964855E+01  0.97820140084E+01  0.00000000000E+00 0.  1.
</event>
<event>
 7    1  0.5972636E-013  0.5052892E+02  0.7816164E-02  0.1300439E+00
        -11   -1    0    0    0    0  0.00000000000E+00  0.00000000000E+00  0.45593999997E+02  0.45594000000E+02  0.51100000000E-03 0. -1.
         11   -1    0    0    0    0 -0.00000000000E+00 -0.00000000000E+00 -0.45593999997E+02  0.45594000000E+02  0.51100000000E-03 0.  1.
    9900012    2    1    2    0    0 -0.95754485820E+01  0.34923823773E+02 -0.18487773106E+02  0.50528924298E+02  0.30000195897E+02 0.  0.
         12    1    1    2    0    0  0.95754485820E+01 -0.34923823773E+02  0.18487773106E+02  0.40659075702E+02  0.00000000000E+00 0. -1.
         11    1    3    3    0    0 -0.27420720064E-01 -0.20555562921E+01 -0.43091057145E+01  0.47743539758E+01  0.51100000000E-03 0. -1.
        -11    1    3    3    0    0 -0.10581169401E+02  0.39418649759E+02 -0.12837852992E+02  0.42785529849E+02  0.51100000000E-03 0.  1.
        -12    1    3    3    0    0  0.10331415391E+01 -0.24392696943E+01 -0.13408143994E+01  0.29690404738E+01  0.00000000000E+00 0.  1.
</event>
<event>
 7    1  0.5972636E-013  0.5052886E+02  0.7816164E-02  0.1300439E+00
        -11   -1    0    0    0    0  0.00000000000E+00  0.00000000000E+00  0.45593999997E+02  0.45594000000E+02  0.51100000000E-03 0.  1.
         11   -1    0    0    0    0 -0.00000000000E+00 -0.00000000000E+00 -0.45593999997E+02  0.45594000000E+02  0.51100000000E-03 0. -1.
    9900012    2    1    2    0    0  0.27714484914E+02  0.17888562400E+02  0.23771242713E+02  0.50528864262E+02  0.30000013412E+02 0.  0.
         12    1    1    2    0    0 -0.27714484914E+02 -0.17888562400E+02 -0.23771242713E+02  0.40659135738E+02  0.00000000000E+00 0. -1.
         11    1    3    3    0    0 -0.27982576600E+01  0.49835210089E+01  0.65934277956E+01  0.87257674697E+01  0.51100000000E-03 0. -1.
        -11    1    3    3    0    0  0.31604952524E+02  0.10011912595E+02  0.11061596713E+02  0.34949539911E+02  0.51100000000E-03 0.  1.
        -12    1    3    3    0    0 -0.10922099502E+01  0.28931287961E+01  0.61162182050E+01  0.68535568822E+01  0.00000000000E+00 0.  1.
</event>
<event>
 7    1  0.5972636E-013  0.5052886E+02  0.7816164E-02  0.1300439E+00
        -11   -1    0    0    0    0  0.00000000000E+00  0.00000000000E+00  0.45593999997E+02  0.45594000000E+02  0.51100000000E-03 0.  1.
         11   -1    0    0    0    0 -0.00000000000E+00 -0.00000000000E+00 -0.45593999997E+02  0.45594000000E+02  0.51100000000E-03 0. -1.
    9900012    2    1    2    0    0  0.12551275654E+02 -0.29235430412E+02  0.25316408895E+02  0.50528862389E+02  0.30000007717E+02 0.  0.
         12    1    1    2    0    0 -0.12551275654E+02  0.29235430412E+02 -0.25316408895E+02  0.40659137611E+02  0.00000000000E+00 0. -1.
         11    1    3    3    0    0  0.91553231684E+01 -0.26533657780E+02  0.23801947476E+02  0.36802005943E+02  0.51100000000E-03 0.  1.
        -11    1    3    3    0    0 -0.71931315103E+00 -0.35112850171E+01 -0.48951055430E+01  0.60670085230E+01  0.51100000000E-03 0. -1.
         12    1    3    3    0    0  0.41152656363E+01  0.80951238470E+00  0.64095669626E+01  0.76598479232E+01  0.00000000000E+00 0. -1.
</event>
<event>
 7    1  0.5972636E-013  0.5052885E+02  0.7816164E-02  0.1300439E+00
        -11   -1    0    0    0    0  0.00000000000E+00  0.00000000000E+00  0.45593999997E+02  0.45594000000E+02  0.51100000000E-03 0. -1.
         11   -1    0    0    0    0 -0.00000000000E+00 -0.00000000000E+00 -0.45593999997E+02  0.45594000000E+02  0.51100000000E-03 0.  1.
    9900012    2    1    2    0    0 -0.13377173894E+02 -0.15031648557E+02 -0.35330822318E+02  0.50528852869E+02  0.29999978781E+02 0.  0.
         12    1    1    2    0    0  0.13377173894E+02  0.15031648557E+02  0.35330822318E+02  0.40659147131E+02  0.00000000000E+00 0. -1.
         11    1    3    3    0    0 -0.25536258092E+01  0.55018462559E+00  0.44519004028E+00  0.26498872294E+01  0.51100000000E-03 0. -1.
        -11    1    3    3    0    0 -0.10347255515E+02 -0.21747732678E+02 -0.33564688664E+02  0.41311232113E+02  0.51100000000E-03 0.  1.
        -12    1    3    3    0    0 -0.47629256966E+00  0.61658994954E+01 -0.22113236947E+01  0.65677335270E+01  0.00000000000E+00 0.  1.
</event>
<event>
 7    1  0.5972636E-013  0.5052886E+02  0.7816164E-02  0.1300439E+00
        -11   -1    0    0    0    0  0.00000000000E+00  0.00000000000E+00  0.45593999997E+02  0.45594000000E+02  0.51100000000E-03 0.  1.
         11   -1    0    0    0    0 -0.00000000000E+00 -0.00000000000E+00 -0.45593999997E+02  0.45594000000E+02  0.51100000000E-03 0. -1.
    9900012    2    1    2    0    0 -0.16842271601E+02 -0.25322594384E+02  0.26986478196E+02  0.50528857062E+02  0.29999991526E+02 0.  0.
         12    1    1    2    0    0  0.16842271601E+02  0.25322594384E+02 -0.26986478196E+02  0.40659142938E+02  0.00000000000E+00 0. -1.
         11    1    3    3    0    0 -0.17466095224E+01  0.82371739120E+00 -0.17214828172E+01  0.25870173009E+01  0.51100000000E-03 0. -1.
        -11    1    3    3    0    0 -0.81924062140E+01 -0.28635607622E+02  0.27434081164E+02  0.40493732269E+02  0.51100000000E-03 0.  1.
        -12    1    3    3    0    0 -0.69032558650E+01  0.24892958468E+01  0.12738798484E+01  0.74481074925E+01  0.00000000000E+00 0.  1.
</event>
<event>
 7    1  0.5972636E-013  0.5052888E+02  0.7816164E-02  0.1300439E+00
        -11   -1    0    0    0    0  0.00000000000E+00  0.00000000000E+00  0.45593999997E+02  0.45594000000E+02  0.51100000000E-03 0.  1.
         11   -1    0    0    0    0 -0.00000000000E+00 -0.00000000000E+00 -0.45593999997E+02  0.45594000000E+02  0.51100000000E-03 0. -1.
    9900012    2    1    2    0    0  0.15228084298E+02  0.22904174621E+02  0.29944426313E+02  0.50528875149E+02  0.30000046502E+02 0.  0.
         12    1    1    2    0    0 -0.15228084298E+02 -0.22904174621E+02 -0.29944426313E+02  0.40659124851E+02  0.00000000000E+00 0. -1.
         11    1    3    3    0    0 -0.12642591572E+00  0.49301298632E+01 -0.47156635866E+01  0.68234629994E+01  0.51100000000E-03 0. -1.
        -11    1    3    3    0    0  0.65244978985E+01  0.24144195836E+01  0.17844677336E+02  0.19152832800E+02  0.51100000000E-03 0.  1.
        -12    1    3    3    0    0  0.88300123148E+01  0.15559625174E+02  0.16815412563E+02  0.24552579350E+02  0.00000000000E+00 0.  1.
</event>
<event>
 7    1  0.5972636E-013  0.5052885E+02  0.7816164E-02  0.1300439E+00
        -11   -1    0    0    0    0  0.00000000000E+00  0.00000000000E+00  0.45593999997E+02  0.45594000000E+02  0.51100000000E-03 0.  1.
         11   -1    0    0    0    0 -0.00000000000E+00 -0.00000000000E+00 -0.45593999997E+02  0.45594000000E+02  0.51100000000E-03 0. -1.
    9900012    2    1    2    0    0  0.33639260668E+02  0.16315846993E+02  0.15979991521E+02  0.50528845429E+02  0.29999956167E+02 0.  0.
         12    1    1    2    0    0 -0.33639260668E+02 -0.16315846993E+02 -0.15979991521E+02  0.40659154571E+02  0.00000000000E+00 0. -1.
         11    1    3    3    0    0  0.14459527358E+02  0.63881395652E+01 -0.75249780801E+00  0.15825691509E+02  0.51100000000E-03 0. -1.
        -11    1    3    3    0    0 -0.14106950173E+01  0.93380477207E+01  0.78095230504E+01  0.12254707104E+02  0.51100000000E-03 0.  1.
        -12    1    3    3    0    0  0.20590428327E+02  0.58965970764E+00  0.89229662783E+01  0.22448446817E+02  0.00000000000E+00 0.  1.
</event>
<event>
 7    1  0.5972636E-013  0.5052886E+02  0.7816164E-02  0.1300439E+00
        -11   -1    0    0    0    0  0.00000000000E+00  0.00000000000E+00  0.45593999997E+02  0.45594000000E+02  0.51100000000E-03 0. -1.
         11   -1    0    0    0    0 -0.00000000000E+00 -0.00000000000E+00 -0.45593999997E+02  0.45594000000E+02  0.51100000000E-03 0.  1.
    9900012    2    1    2    0    0 -0.25025427227E+01  0.39315628523E+02  0.10059035928E+02  0.50528861174E+02  0.30000004024E+02 0.  0.
         12    1    1    2    0    0  0.25025427227E+01 -0.39315628523E+02 -0.10059035928E+02  0.40659138826E+02  0.00000000000E+00 0. -1.
         11    1    3    3    0    0 -0.25082996622E+01  0.13747738252E+02  0.11052544804E+02  0.17817144023E+02  0.51100000000E-03 0. -1.
        -11    1    3    3    0    0  0.75862864294E+01  0.18740565189E+01 -0.48996968222E+00  0.78296807199E+01  0.51100000000E-03 0.  1.
        -12    1    3    3    0    0 -0.75805294898E+01  0.23693833752E+02 -0.50353919361E+00  0.24882036431E+02  0.00000000000E+00 0.  1.
</event>
<event>
 7    1  0.5972636E-013  0.5052886E+02  0.7816164E-02  0.1300439E+00
        -11   -1    0    0    0    0  0.00000000000E+00  0.00000000000E+00  0.45593999997E+02  0.45594000000E+02  0.51100000000E-03 0.  1.
         11   -1    0    0    0    0 -0.00000000000E+00 -0.00000000000E+00 -0.45593999997E+02  0.45594000000E+02  0.51100000000E-03 0. -1.
    9900012    2    1    2    0    0 -0.90110183367E+01  0.20353415893E+02  0.34025077192E+02  0.50528857512E+02  0.29999992892E+02 0.  0.
         12    1    1    2    0    0  0.90110183367E+01 -0.20353415893E+02 -0.34025077192E+02  0.40659142488E+02  0.00000000000E+00 0. -1.
         11    1    3    3    0    0 -0.15199650858E+02  0.18835733430E+01  0.23913827131E+02  0.28398034493E+02  0.51100000000E-03 0. -1.
        -11    1    3    3    0    0  0.63288295037E+01  0.17421057956E+02  0.10016687440E+02  0.21068492369E+02  0.51100000000E-03 0.  1.
         12    1    3    3    0    0 -0.14019698205E+00  0.10487845947E+01  0.94562621256E-01  0.10623306497E+01  0.00000000000E+00 0. -1.
</event>
<event>
 7    1  0.5972636E-013  0.5052886E+02  0.7816164E-02  0.1300439E+00
        -11   -1    0    0    0    0  0.00000000000E+00  0.00000000000E+00  0.45593999997E+02  0.45594000000E+02  0.51100000000E-03 0.  1.
         11   -1    0    0    0    0 -0.00000000000E+00 -0.00000000000E+00 -0.45593999997E+02  0.45594000000E+02  0.51100000000E-03 0. -1.
    9900012    2    1    2    0    0  0.20787296742E+02  0.21732218583E+02  0.27363562183E+02  0.50528861227E+02  0.30000004187E+02 0.  0.
         12    1    1    2    0    0 -0.20787296742E+02 -0.21732218583E+02 -0.27363562183E+02  0.40659138773E+02  0.00000000000E+00 0. -1.
         11    1    3    3    0    0  0.23830680444E+02  0.21635936531E+02  0.16784351660E+02  0.36300544636E+02  0.51100000000E-03 0. -1.
        -11    1    3    3    0    0 -0.20837814286E+01  0.45164824440E+01  0.51113829251E+01  0.71321100930E+01  0.51100000000E-03 0.  1.
         12    1    3    3    0    0 -0.95960227337E+00 -0.44202003916E+01  0.54678275980E+01  0.70962064983E+01  0.00000000000E+00 0. -1.
</event>
<event>
 7    1  0.5972636E-013  0.5052885E+02  0.7816164E-02  0.1300439E+00
        -11   -1    0    0    0    0  0.00000000000E+00  0.00000000000E+00  0.45593999997E+02  0.45594000000E+02  0.51100000000E-03 0. -1.
         11   -1    0    0    0    0 -0.00000000000E+00 -0.00000000000E+00 -0.45593999997E+02  0.45594000000E+02  0.51100000000E-03 0.  1.
    9900012    2    1    2    0    0  0.91794318117E+01 -0.73168338800E+01 -0.38927730651E+02  0.50528852935E+02  0.29999978980E+02 0.  0.
         12    1    1    2    0    0 -0.91794318117E+01  0.73168338800E+01  0.38927730651E+02  0.40659147065E+02  0.00000000000E+00 0. -1.
         11    1    3    3    0    0 -0.43937114614E+01 -0.25709931642E+01 -0.42845534702E+01  0.66537286507E+01  0.51100000000E-03 0. -1.
        -11    1    3    3    0    0  0.11371494529E+02  0.27355330503E+01 -0.41655258800E+01  0.12415540061E+02  0.51100000000E-03 0.  1.
        -12    1    3    3    0    0  0.22016487438E+01 -0.74813737661E+01 -0.30477651301E+02  0.31459584223E+02  0.00000000000E+00 0.  1.
</event>
<event>
 7    1  0.5972636E-013  0.5052886E+02  0.7816164E-02  0.1300439E+00
        -11   -1    0    0    0    0  0.00000000000E+00  0.00000000000E+00  0.45593999997E+02  0.45594000000E+02  0.51100000000E-03 0.  1.
         11   -1    0    0    0    0 -0.00000000000E+00 -0.00000000000E+00 -0.45593999997E+02  0.45594000000E+02  0.51100000000E-03 0. -1.
    9900012    2    1    2    0    0 -0.16866383535E+02 -0.16825577317E+02  0.32948302631E+02  0.50528860906E+02  0.30000003210E+02 0.  0.
         12    1    1    2    0    0  0.16866383535E+02  0.16825577317E+02 -0.32948302631E+02  0.40659139094E+02  0.00000000000E+00 0. -1.
         11    1    3    3    0    0 -0.14465077149E+02  0.37725344033E+01  0.86475359000E+01  0.17269926177E+02  0.51100000000E-03 0. -1.
        -11    1    3    3    0    0  0.46764068091E+00 -0.88298157008E+01  0.16874299336E+02  0.19050624962E+02  0.51100000000E-03 0.  1.
         12    1    3    3    0    0 -0.28689470673E+01 -0.11768296019E+02  0.74264673953E+01  0.14208309767E+02  0.00000000000E+00 0. -1.
</event>
<event>
 7    1  0.5972636E-013  0.5052886E+02  0.7816164E-02  0.1300439E+00
        -11   -1    0    0    0    0  0.00000000000E+00  0.00000000000E+00  0.45593999997E+02  0.45594000000E+02  0.51100000000E-03 0.  1.
         11   -1    0    0    0    0 -0.00000000000E+00 -0.00000000000E+00 -0.45593999997E+02  0.45594000000E+02  0.51100000000E-03 0. -1.
    9900012    2    1    2    0    0  0.17973890962E+02 -0.35603995518E+02  0.79031720754E+01  0.50528863487E+02  0.30000011055E+02 0.  0.
         12    1    1    2    0    0 -0.17973890962E+02  0.35603995518E+02 -0.79031720754E+01  0.40659136513E+02  0.00000000000E+00 0. -1.
         11    1    3    3    0    0  0.24776275522E+01 -0.10392831495E+02  0.15248042278E+02  0.18618603018E+02  0.51100000000E-03 0. -1.
        -11    1    3    3    0    0  0.72171069778E+01 -0.18024774357E+02 -0.14680172074E+01  0.19471368687E+02  0.51100000000E-03 0.  1.
         12    1    3    3    0    0  0.82791564316E+01 -0.71863896660E+01 -0.58768529949E+01  0.12438891782E+02  0.00000000000E+00 0. -1.
</event>
<event>
 7    1  0.5972636E-013  0.5052887E+02  0.7816164E-02  0.1300439E+00
        -11   -1    0    0    0    0  0.00000000000E+00  0.00000000000E+00  0.45593999997E+02  0.45594000000E+02  0.51100000000E-03 0.  1.
         11   -1    0    0    0    0 -0.00000000000E+00 -0.00000000000E+00 -0.45593999997E+02  0.45594000000E+02  0.51100000000E-03 0. -1.
    9900012    2    1    2    0    0  0.22913615660E+02  0.33568872532E+02 -0.11234028888E+01  0.50528867942E+02  0.30000024596E+02 0.  0.
         12    1    1    2    0    0 -0.22913615660E+02 -0.33568872532E+02  0.11234028888E+01  0.40659132058E+02  0.00000000000E+00 0. -1.
         11    1    3    3    0    0 -0.15677914256E+01 -0.12379195273E+01 -0.13550909303E+01  0.24138530197E+01  0.51100000000E-03 0. -1.
        -11    1    3    3    0    0  0.27534848076E+02  0.34048482250E+02  0.30447331695E+01  0.43894617010E+02  0.51100000000E-03 0.  1.
        -12    1    3    3    0    0 -0.30534409902E+01  0.75830980866E+00 -0.28130451279E+01  0.42203979123E+01  0.00000000000E+00 0.  1.
</event>
<event>
 7    1  0.5972636E-013  0.5052888E+02  0.7816164E-02  0.1300439E+00
        -11   -1    0    0    0    0  0.00000000000E+00  0.00000000000E+00  0.45593999997E+02  0.45594000000E+02  0.51100000000E-03 0. -1.
         11   -1    0    0    0    0 -0.00000000000E+00 -0.00000000000E+00 -0.45593999997E+02  0.45594000000E+02  0.51100000000E-03 0.  1.
    9900012    2    1    2    0    0 -0.19925083809E+02  0.17406432744E+02  0.30873473607E+02  0.50528877552E+02  0.30000053807E+02 0.  0.
         12    1    1    2    0    0  0.19925083809E+02 -0.17406432744E+02 -0.30873473607E+02  0.40659122448E+02  0.00000000000E+00 0. -1.
         11    1    3    3    0    0 -0.21840214552E+01  0.83932442271E+01  0.11124842909E+02  0.14105978463E+02  0.51100000000E-03 0. -1.
        -11    1    3    3    0    0 -0.19788021793E+02 -0.14809646301E+01  0.11654504886E+02  0.23012747491E+02  0.51100000000E-03 0.  1.
        -12    1    3    3    0    0  0.20469594387E+01  0.10494153147E+02  0.80941258119E+01  0.13410151598E+02  0.00000000000E+00 0.  1.
</event>
<event>
 7    1  0.5972636E-013  0.5052886E+02  0.7816164E-02  0.1300439E+00
        -11   -1    0    0    0    0  0.00000000000E+00  0.00000000000E+00  0.45593999997E+02  0.45594000000E+02  0.51100000000E-03 0. -1.
         11   -1    0    0    0    0 -0.00000000000E+00 -0.00000000000E+00 -0.45593999997E+02  0.45594000000E+02  0.51100000000E-03 0.  1.
    9900012    2    1    2    0    0  0.31946308254E+02  0.25119284503E+02 -0.12731018761E+01  0.50528857690E+02  0.29999993433E+02 0.  0.
         12    1    1    2    0    0 -0.31946308254E+02 -0.25119284503E+02  0.12731018761E+01  0.40659142310E+02  0.00000000000E+00 0. -1.
         11    1    3    3    0    0  0.14158492344E+02  0.11756903284E+00 -0.16055280120E+01  0.14249717485E+02  0.51100000000E-03 0. -1.
        -11    1    3    3    0    0  0.15802332387E+02  0.28271066246E+02  0.96516579609E+00  0.32402136362E+02  0.51100000000E-03 0.  1.
        -12    1    3    3    0    0  0.19854835227E+01 -0.32693507759E+01 -0.63273966012E+00  0.38770038422E+01  0.00000000000E+00 0.  1.
</event>
<event>
 7    1  0.5972636E-013  0.5052886E+02  0.7816164E-02  0.1300439E+00
        -11   -1    0    0    0    0  0.00000000000E+00  0.00000000000E+00  0.45593999997E+02  0.45594000000E+02  0.51100000000E-03 0.  1.
         11   -1    0    0    0    0 -0.00000000000E+00 -0.00000000000E+00 -0.45593999997E+02  0.45594000000E+02  0.51100000000E-03 0. -1.
    9900012    2    1    2    0    0 -0.26796838116E+02 -0.20625808137E+02 -0.22575903873E+02  0.50528856747E+02  0.29999990570E+02 0.  0.
         12    1    1    2    0    0  0.26796838116E+02  0.20625808137E+02  0.22575903873E+02  0.40659143253E+02  0.00000000000E+00 0. -1.
         11    1    3    3    0    0 -0.32041584067E+01 -0.61623119429E+01 -0.17745934973E+02  0.19056729203E+02  0.51100000000E-03 0. -1.
        -11    1    3    3    0    0 -0.67194002447E+01 -0.68868866757E+01  0.46515772504E+01  0.10687222226E+02  0.51100000000E-03 0.  1.
         12    1    3    3    0    0 -0.16873279465E+02 -0.75766095184E+01 -0.94815461503E+01  0.20784905318E+02  0.00000000000E+00 0. -1.
</event>
<event>
 7    1  0.6264698E-013  0.5052887E+02  0.7816164E-02  0.1300439E+00
        -11   -1    0    0    0    0  0.00000000000E+00  0.00000000000E+00  0.45593999997E+02  0.45594000000E+02  0.51100000000E-03 0. -1.
         11   -1    0    0    0    0 -0.00000000000E+00 -0.00000000000E+00 -0.45593999997E+02  0.45594000000E+02  0.51100000000E-03 0.  1.
    9900012    2    1    2    0    0 -0.28260342229E+02 -0.25214788116E+02  0.14789603245E+02  0.50528870069E+02  0.30000031061E+02 0.  0.
         12    1    1    2    0    0  0.28260342229E+02  0.25214788116E+02 -0.14789603245E+02  0.40659129931E+02  0.00000000000E+00 0. -1.
         11    1    3    3    0    0  0.98151422796E+00 -0.11926964897E+02 -0.13679577059E+01  0.12045213588E+02  0.51100000000E-03 0.  1.
        -11    1    3    3    0    0 -0.10069841641E+02 -0.27587030210E+00  0.10666136006E+02  0.14671205562E+02  0.51100000000E-03 0. -1.
        -12    1    3    3    0    0 -0.19172014816E+02 -0.13011952917E+02  0.54914249456E+01  0.23812450918E+02  0.00000000000E+00 0.  1.
</event>
<event>
 7    1  0.5972636E-013  0.5052886E+02  0.7816164E-02  0.1300439E+00
        -11   -1    0    0    0    0  0.00000000000E+00  0.00000000000E+00  0.45593999997E+02  0.45594000000E+02  0.51100000000E-03 0. -1.
         11   -1    0    0    0    0 -0.00000000000E+00 -0.00000000000E+00 -0.45593999997E+02  0.45594000000E+02  0.51100000000E-03 0.  1.
    9900012    2    1    2    0    0  0.15378679334E+02 -0.36360635352E+02  0.97245177404E+01  0.50528858020E+02  0.29999994438E+02 0.  0.
         12    1    1    2    0    0 -0.15378679334E+02  0.36360635352E+02 -0.97245177404E+01  0.40659141980E+02  0.00000000000E+00 0. -1.
         11    1    3    3    0    0  0.39114904202E+01  0.13521630774E+01  0.33665756076E+01  0.53349727158E+01  0.51100000000E-03 0. -1.
        -11    1    3    3    0    0  0.58401900325E+00 -0.32374477409E+02  0.67063823087E+01  0.33066953740E+02  0.51100000000E-03 0.  1.
        -12    1    3    3    0    0  0.10883169910E+02 -0.53383210208E+01 -0.34844017594E+00  0.12126931565E+02  0.00000000000E+00 0.  1.
</event>
<event>
 7    1  0.5972636E-013  0.5052885E+02  0.7816164E-02  0.1300439E+00
        -11   -1    0    0    0    0  0.00000000000E+00  0.00000000000E+00  0.45593999997E+02  0.45594000000E+02  0.51100000000E-03 0.  1.
         11   -1    0    0    0    0 -0.00000000000E+00 -0.00000000000E+00 -0.45593999997E+02  0.45594000000E+02  0.51100000000E-03 0. -1.
    9900012    2    1    2    0    0  0.26536506772E+01 -0.12292389521E+02  0.38665507964E+02  0.50528853327E+02  0.29999980174E+02 0.  0.
         12    1    1    2    0    0 -0.26536506772E+01  0.12292389521E+02 -0.38665507964E+02  0.40659146673E+02  0.00000000000E+00 0. -1.
         11    1    3    3    0    0 -0.84849436910E+01 -0.74819870929E+01  0.45567007393E+01  0.12195815765E+02  0.51100000000E-03 0. -1.
        -11    1    3    3    0    0  0.42670800041E+01 -0.55224277679E+01  0.28763999737E+02  0.29598528027E+02  0.51100000000E-03 0.  1.
        -12    1    3    3    0    0  0.68715143641E+01  0.71202533973E+00  0.53448074875E+01  0.87345095351E+01  0.00000000000E+00 0.  1.
</event>
<event>
 7    1  0.5972636E-013  0.5052882E+02  0.7816164E-02  0.1300439E+00
        -11   -1    0    0    0    0  0.00000000000E+00  0.00000000000E+00  0.45593999997E+02  0.45594000000E+02  0.51100000000E-03 0.  1.
         11   -1    0    0    0    0 -0.00000000000E+00 -0.00000000000E+00 -0.45593999997E+02  0.45594000000E+02  0.51100000000E-03 0. -1.
    9900012    2    1    2    0    0 -0.19415702970E+02  0.17432566665E+02  0.31181809857E+02  0.50528816925E+02  0.29999869526E+02 0.  0.
         12    1    1    2    0    0  0.19415702970E+02 -0.17432566665E+02 -0.31181809857E+02  0.40659183075E+02  0.00000000000E+00 0. -1.
         11    1    3    3    0    0  0.41552244118E+00  0.12916928875E+02  0.72239668020E+00  0.12943784906E+02  0.51100000000E-03 0. -1.
        -11    1    3    3    0    0 -0.19358275894E+02  0.55382363881E+01  0.25456737746E+02  0.32457054777E+02  0.51100000000E-03 0.  1.
         12    1    3    3    0    0 -0.47294951741E+00 -0.10225985980E+01  0.50026754308E+01  0.51279772430E+01  0.00000000000E+00 0. -1.
</event>
<event>
 7    1  0.5972636E-013  0.5052886E+02  0.7816164E-02  0.1300439E+00
        -11   -1    0    0    0    0  0.00000000000E+00  0.00000000000E+00  0.45593999997E+02  0.45594000000E+02  0.51100000000E-03 0. -1.
         11   -1    0    0    0    0 -0.00000000000E+00 -0.00000000000E+00 -0.45593999997E+02  0.45594000000E+02  0.51100000000E-03 0.  1.
    9900012    2    1    2    0    0 -0.13079934196E+02  0.16720920380E+02 -0.34676960684E+02  0.50528862538E+02  0.30000008170E+02 0.  0.
         12    1    1    2    0    0  0.13079934196E+02 -0.16720920380E+02  0.34676960684E+02  0.40659137462E+02  0.00000000000E+00 0. -1.
         11    1    3    3    0    0  0.28728024431E+01  0.14342465771E+02 -0.16752424597E+02  0.22239672848E+02  0.51100000000E-03 0. -1.
        -11    1    3    3    0    0 -0.11024775717E+02 -0.80936684194E-01 -0.19638047678E+02  0.22521215491E+02  0.51100000000E-03 0.  1.
         12    1    3    3    0    0 -0.49279609219E+01  0.24593912926E+01  0.17135115909E+01  0.57679741980E+01  0.00000000000E+00 0. -1.
</event>
<event>
 7    1  0.5972636E-013  0.5052886E+02  0.7816164E-02  0.1300439E+00
        -11   -1    0    0    0    0  0.00000000000E+00  0.00000000000E+00  0.45593999997E+02  0.45594000000E+02  0.51100000000E-03 0. -1.
         11   -1    0    0    0    0 -0.00000000000E+00 -0.00000000000E+00 -0.45593999997E+02  0.45594000000E+02  0.51100000000E-03 0.  1.
    9900012    2    1    2    0    0  0.35808126533E+02  0.16414527652E+02 -0.10075049541E+02  0.50528864900E+02  0.30000015349E+02 0.  0.
         12    1    1    2    0    0 -0.35808126533E+02 -0.16414527652E+02  0.10075049541E+02  0.40659135100E+02  0.00000000000E+00 0. -1.
         11    1    3    3    0    0  0.10734934797E+02  0.29492185319E+01  0.78141318680E+01  0.13601373907E+02  0.51100000000E-03 0. -1.
        -11    1    3    3    0    0  0.19857920917E+02  0.27053127773E+01 -0.13618004677E+02  0.24230266033E+02  0.51100000000E-03 0.  1.
        -12    1    3    3    0    0  0.52152708193E+01  0.10759996343E+02 -0.42711767323E+01  0.12697224960E+02  0.00000000000E+00 0.  1.
</event>
<event>
 7    1  0.5972636E-013  0.5052886E+02  0.7816164E-02  0.1300439E+00
        -11   -1    0    0    0    0  0.00000000000E+00  0.00000000000E+00  0.45593999997E+02  0.45594000000E+02  0.51100000000E-03 0.  1.
         11   -1    0    0    0    0 -0.00000000000E+00 -0.00000000000E+00 -0.45593999997E+02  0.45594000000E+02  0.51100000000E-03 0. -1.
    9900012    2    1    2    0    0 -0.12954742371E+02 -0.49103260987E+01  0.38226023960E+02  0.50528861297E+02  0.30000004397E+02 0.  0.
         12    1    1    2    0    0  0.12954742371E+02  0.49103260987E+01 -0.38226023960E+02  0.40659138703E+02  0.00000000000E+00 0. -1.
         11    1    3    3    0    0 -0.13634747941E+02 -0.76093099286E+01  0.59447707928E+01  0.16707730218E+02  0.51100000000E-03 0. -1.
        -11    1    3    3    0    0  0.11285610647E+01 -0.12302721429E+01  0.27776845886E+02  0.27826972297E+02  0.51100000000E-03 0.  1.
        -12    1    3    3    0    0 -0.44855549438E+00  0.39292559728E+01  0.45044072820E+01  0.59941587811E+01  0.00000000000E+00 0.  1.
</event>
<event>
 7    1  0.5972636E-013  0.5052887E+02  0.7816164E-02  0.1300439E+00
        -11   -1    0    0    0    0  0.00000000000E+00  0.00000000000E+00  0.45593999997E+02  0.45594000000E+02  0.51100000000E-03 0.  1.
         11   -1    0    0    0    0 -0.00000000000E+00 -0.00000000000E+00 -0.45593999997E+02  0.45594000000E+02  0.51100000000E-03 0. -1.
    9900012    2    1    2    0    0 -0.16300205948E+01  0.38657469435E+02  0.12494326551E+02  0.50528866879E+02  0.30000021364E+02 0.  0.
         12    1    1    2    0    0  0.16300205948E+01 -0.38657469435E+02 -0.12494326551E+02  0.40659133121E+02  0.00000000000E+00 0. -1.
         11    1    3    3    0    0 -0.40206653071E+01  0.15642541678E+02 -0.82935492119E+01  0.18155930669E+02  0.51100000000E-03 0. -1.
        -11    1    3    3    0    0  0.49480280106E+01  0.11562191634E+02  0.74907630815E+01  0.14638264527E+02  0.51100000000E-03 0.  1.
         12    1    3    3    0    0 -0.25573832983E+01  0.11452736123E+02  0.13297112681E+02  0.17734671683E+02  0.00000000000E+00 0. -1.
</event>
<event>
 7    1  0.5972636E-013  0.5052886E+02  0.7816164E-02  0.1300439E+00
        -11   -1    0    0    0    0  0.00000000000E+00  0.00000000000E+00  0.45593999997E+02  0.45594000000E+02  0.51100000000E-03 0. -1.
         11   -1    0    0    0    0 -0.00000000000E+00 -0.00000000000E+00 -0.45593999997E+02  0.45594000000E+02  0.51100000000E-03 0.  1.
    9900012    2    1    2    0    0 -0.11286423907E+02  0.45566434409E+01 -0.38794576546E+02  0.50528861625E+02  0.30000005395E+02 0.  0.
         12    1    1    2    0    0  0.11286423907E+02 -0.45566434409E+01  0.38794576546E+02  0.40659138375E+02  0.00000000000E+00 0. -1.
         11    1    3    3    0    0  0.12191286419E+01  0.13605130409E+02 -0.11771730500E+02  0.18032179217E+02  0.51100000000E-03 0. -1.
        -11    1    3    3    0    0 -0.92129632033E+01 -0.99278348638E+00 -0.12394442422E+02  0.15475351797E+02  0.51100000000E-03 0.  1.
         12    1    3    3    0    0 -0.32925893454E+01 -0.80557034814E+01 -0.14628403624E+02  0.17021330611E+02  0.00000000000E+00 0. -1.
</event>
<event>
 7    1  0.5972636E-013  0.5052887E+02  0.7816164E-02  0.1300439E+00
        -11   -1    0    0    0    0  0.00000000000E+00  0.00000000000E+00  0.45593999997E+02  0.45594000000E+02  0.51100000000E-03 0.  1.
         11   -1    0    0    0    0 -0.00000000000E+00 -0.00000000000E+00 -0.45593999997E+02  0.45594000000E+02  0.51100000000E-03 0. -1.
    9900012    2    1    2    0    0  0.31567212895E+02 -0.46930817097E+01  0.25192276025E+02  0.50528871662E+02  0.30000035903E+02 0.  0.
         12    1    1    2    0    0 -0.31567212895E+02  0.46930817097E+01 -0.25192276025E+02  0.40659128338E+02  0.00000000000E+00 0. -1.
         11    1    3    3    0    0  0.11465156808E+02  0.82062484461E+01  0.11585244393E+02  0.18248567673E+02  0.51100000000E-03 0. -1.
        -11    1    3    3    0    0  0.47069266970E+01 -0.13014366351E+02  0.56285766731E+01  0.14940206360E+02  0.51100000000E-03 0.  1.
        -12    1    3    3    0    0  0.15395129390E+02  0.11503619533E+00  0.79784549582E+01  0.17340097629E+02  0.00000000000E+00 0.  1.
</event>
<event>
 7    1  0.5972636E-013  0.5052884E+02  0.7816164E-02  0.1300439E+00
        -11   -1    0    0    0    0  0.00000000000E+00  0.00000000000E+00  0.45593999997E+02  0.45594000000E+02  0.51100000000E-03 0.  1.
         11   -1    0    0    0    0 -0.00000000000E+00 -0.00000000000E+00 -0.45593999997E+02  0.45594000000E+02  0.51100000000E-03 0. -1.
    9900012    2    1    2    0    0 -0.31678248771E+02  0.24585504794E+02  0.67237556656E+01  0.50528838899E+02  0.29999936317E+02 0.  0.
         12    1    1    2    0    0  0.31678248771E+02 -0.24585504794E+02 -0.67237556656E+01  0.40659161101E+02  0.00000000000E+00 0. -1.
         11    1    3    3    0    0 -0.19187401410E+02  0.24747736052E+00 -0.13307148784E+00  0.19189458726E+02  0.51100000000E-03 0. -1.
        -11    1    3    3    0    0 -0.10636387706E+02  0.24487006566E+02  0.27596061497E+01  0.26839554027E+02  0.51100000000E-03 0.  1.
        -12    1    3    3    0    0 -0.18544596553E+01 -0.14897913229E+00  0.40972210037E+01  0.44998261465E+01  0.00000000000E+00 0.  1.
</event>
<event>
 7    1  0.5972636E-013  0.5052885E+02  0.7816164E-02  0.1300439E+00
        -11   -1    0    0    0    0  0.00000000000E+00  0.00000000000E+00  0.45593999997E+02  0.45594000000E+02  0.51100000000E-03 0.  1.
         11   -1    0    0    0    0 -0.00000000000E+00 -0.00000000000E+00 -0.45593999997E+02  0.45594000000E+02  0.51100000000E-03 0. -1.
    9900012    2    1    2    0    0 -0.28448130877E+02  0.28935064326E+02 -0.25753189352E+01  0.50528851392E+02  0.29999974291E+02 0.  0.
         12    1    1    2    0    0  0.28448130877E+02 -0.28935064326E+02  0.25753189352E+01  0.40659148608E+02  0.00000000000E+00 0. -1.
         11    1    3    3    0    0 -0.10444327732E+02  0.17406729174E+02 -0.68237673803E+01  0.21415928741E+02  0.51100000000E-03 0. -1.
        -11    1    3    3    0    0 -0.17993396079E+02  0.15366556264E+01  0.58733101863E+01  0.18989981195E+02  0.51100000000E-03 0.  1.
        -12    1    3    3    0    0 -0.10407065203E-01  0.99916795255E+01 -0.16248617412E+01  0.10122941456E+02  0.00000000000E+00 0.  1.
</event>
<event>
 7    1  0.5972636E-013  0.5052891E+02  0.7816164E-02  0.1300439E+00
        -11   -1    0    0    0    0  0.00000000000E+00  0.00000000000E+00  0.45593999997E+02  0.45594000000E+02  0.51100000000E-03 0.  1.
         11   -1    0    0    0    0 -0.00000000000E+00 -0.00000000000E+00 -0.45593999997E+02  0.45594000000E+02  0.51100000000E-03 0. -1.
    9900012    2    1    2    0    0 -0.33420146354E+02 -0.22694339441E+02  0.46068136538E+01  0.50528905604E+02  0.30000139075E+02 0.  0.
         12    1    1    2    0    0  0.33420146354E+02  0.22694339441E+02 -0.46068136538E+01  0.40659094396E+02  0.00000000000E+00 0. -1.
         11    1    3    3    0    0  0.10868090976E+00 -0.12356557337E+02  0.17214189070E+01  0.12476361813E+02  0.51100000000E-03 0. -1.
        -11    1    3    3    0    0 -0.21813136199E+02 -0.65720342763E+01  0.87706209484E+01  0.24411643481E+02  0.51100000000E-03 0.  1.
         12    1    3    3    0    0 -0.11715691065E+02 -0.37657478279E+01 -0.58852262016E+01  0.13640900310E+02  0.00000000000E+00 0. -1.
</event>
<event>
 7    1  0.5972636E-013  0.5052885E+02  0.7816164E-02  0.1300439E+00
        -11   -1    0    0    0    0  0.00000000000E+00  0.00000000000E+00  0.45593999997E+02  0.45594000000E+02  0.51100000000E-03 0.  1.
         11   -1    0    0    0    0 -0.00000000000E+00 -0.00000000000E+00 -0.45593999997E+02  0.45594000000E+02  0.51100000000E-03 0. -1.
    9900012    2    1    2    0    0 -0.10143236034E+02 -0.43851356094E+01  0.39128652707E+02  0.50528854482E+02  0.29999983685E+02 0.  0.
         12    1    1    2    0    0  0.10143236034E+02  0.43851356094E+01 -0.39128652707E+02  0.40659145518E+02  0.00000000000E+00 0. -1.
         11    1    3    3    0    0 -0.11810866352E+02 -0.12512524999E+02  0.31991805203E+02  0.36325410476E+02  0.51100000000E-03 0. -1.
        -11    1    3    3    0    0  0.48082998601E+01  0.53117425354E+01  0.69491773127E+01  0.99812535231E+01  0.51100000000E-03 0.  1.
        -12    1    3    3    0    0 -0.31406695421E+01  0.28156468541E+01  0.18767019156E+00  0.42221904836E+01  0.00000000000E+00 0.  1.
</event>
<event>
 7    1  0.5972636E-013  0.5052886E+02  0.7816164E-02  0.1300439E+00
        -11   -1    0    0    0    0  0.00000000000E+00  0.00000000000E+00  0.45593999997E+02  0.45594000000E+02  0.51100000000E-03 0.  1.
         11   -1    0    0    0    0 -0.00000000000E+00 -0.00000000000E+00 -0.45593999997E+02  0.45594000000E+02  0.51100000000E-03 0. -1.
    9900012    2    1    2    0    0  0.25305456716E+02  0.11033627234E+02  0.29850605105E+02  0.50528859642E+02  0.29999999367E+02 0.  0.
         12    1    1    2    0    0 -0.25305456716E+02 -0.11033627234E+02 -0.29850605105E+02  0.40659140358E+02  0.00000000000E+00 0. -1.
         11    1    3    3    0    0  0.22147624478E+02  0.13527945985E+02  0.16765511891E+02  0.30896682376E+02  0.51100000000E-03 0. -1.
        -11    1    3    3    0    0 -0.27675136030E+01  0.29175418718E+01  0.10431842450E+02  0.11180094780E+02  0.51100000000E-03 0.  1.
        -12    1    3    3    0    0  0.59253458411E+01 -0.54118606227E+01  0.26532507629E+01  0.84520824858E+01  0.00000000000E+00 0.  1.
</event>
<event>
 7    1  0.5972636E-013  0.5052897E+02  0.7816164E-02  0.1300438E+00
        -11   -1    0    0    0    0  0.00000000000E+00  0.00000000000E+00  0.45593999997E+02  0.45594000000E+02  0.51100000000E-03 0. -1.
         11   -1    0    0    0    0 -0.00000000000E+00 -0.00000000000E+00 -0.45593999997E+02  0.45594000000E+02  0.51100000000E-03 0.  1.
    9900012    2    1    2    0    0 -0.37503920198E+02 -0.10229922475E+02 -0.11914741463E+02  0.50528973841E+02  0.30000346486E+02 0.  0.
         12    1    1    2    0    0  0.37503920198E+02  0.10229922475E+02  0.11914741463E+02  0.40659026159E+02  0.00000000000E+00 0. -1.
         11    1    3    3    0    0 -0.13730399081E+02  0.30086526154E+01  0.68000302006E+01  0.15614616885E+02  0.51100000000E-03 0. -1.
        -11    1    3    3    0    0 -0.18212187663E+02 -0.52300119743E+01 -0.84187738379E+01  0.20734332830E+02  0.51100000000E-03 0.  1.
         12    1    3    3    0    0 -0.55613334538E+01 -0.80085631164E+01 -0.10295997826E+02  0.14180024126E+02  0.00000000000E+00 0. -1.
</event>
<event>
 7    1  0.5972636E-013  0.5052886E+02  0.7816164E-02  0.1300439E+00
        -11   -1    0    0    0    0  0.00000000000E+00  0.00000000000E+00  0.45593999997E+02  0.45594000000E+02  0.51100000000E-03 0.  1.
         11   -1    0    0    0    0 -0.00000000000E+00 -0.00000000000E+00 -0.45593999997E+02  0.45594000000E+02  0.51100000000E-03 0. -1.
    9900012    2    1    2    0    0 -0.24648409990E+02  0.31478984245E+02  0.73956346241E+01  0.50528856187E+02  0.29999988866E+02 0.  0.
         12    1    1    2    0    0  0.24648409990E+02 -0.31478984245E+02 -0.73956346241E+01  0.40659143813E+02  0.00000000000E+00 0. -1.
         11    1    3    3    0    0  0.16089711569E+01  0.11800443959E+01 -0.46390473241E+01  0.50499557717E+01  0.51100000000E-03 0. -1.
        -11    1    3    3    0    0 -0.15043946331E+02  0.56007973589E+01  0.83827169722E+01  0.18109643739E+02  0.51100000000E-03 0.  1.
        -12    1    3    3    0    0 -0.11213434816E+02  0.24698142490E+02  0.36519649760E+01  0.27369256676E+02  0.00000000000E+00 0.  1.
</event>
<event>
 7    1  0.5972636E-013  0.5052884E+02  0.7816164E-02  0.1300439E+00
        -11   -1    0    0    0    0  0.00000000000E+00  0.00000000000E+00  0.45593999997E+02  0.45594000000E+02  0.51100000000E-03 0. -1.
         11   -1    0    0    0    0 -0.00000000000E+00 -0.00000000000E+00 -0.45593999997E+02  0.45594000000E+02  0.51100000000E-03 0.  1.
    9900012    2    1    2    0    0 -0.38863206400E+02  0.59942917625E+01 -0.10338619355E+02  0.50528838725E+02  0.29999935788E+02 0.  0.
         12    1    1    2    0    0  0.38863206400E+02 -0.59942917625E+01  0.10338619355E+02  0.40659161275E+02  0.00000000000E+00 0. -1.
         11    1    3    3    0    0 -0.51458426788E+00 -0.62194409404E+01 -0.10767737178E+01  0.63329049006E+01  0.51100000000E-03 0. -1.
        -11    1    3    3    0    0 -0.19628744658E+02  0.12518653402E+02 -0.10271915262E+02  0.25446346364E+02  0.51100000000E-03 0.  1.
         12    1    3    3    0    0 -0.18719877475E+02 -0.30492069950E+00  0.10100696244E+01  0.18749587461E+02  0.00000000000E+00 0. -1.
</event>
<event>
 7    1  0.5972636E-013  0.5052888E+02  0.7816164E-02  0.1300439E+00
        -11   -1    0    0    0    0  0.00000000000E+00  0.00000000000E+00  0.45593999997E+02  0.45594000000E+02  0.51100000000E-03 0. -1.
         11   -1    0    0    0    0 -0.00000000000E+00 -0.00000000000E+00 -0.45593999997E+02  0.45594000000E+02  0.51100000000E-03 0.  1.
    9900012    2    1    2    0    0 -0.17266856911E+02 -0.91771850512E+01  0.35648268026E+02  0.50528879421E+02  0.30000059487E+02 0.  0.
         12    1    1    2    0    0  0.17266856911E+02  0.91771850512E+01 -0.35648268026E+02  0.40659120579E+02  0.00000000000E+00 0. -1.
         11    1    3    3    0    0 -0.43566137930E+01 -0.63779156028E+01  0.31007109932E+02  0.31954635936E+02  0.51100000000E-03 0. -1.
        -11    1    3    3    0    0 -0.66679800879E+01 -0.58962808222E+01 -0.18043317799E+01  0.90820537006E+01  0.51100000000E-03 0.  1.
        -12    1    3    3    0    0 -0.62422630305E+01  0.30970113738E+01  0.64454898733E+01  0.94921897841E+01  0.00000000000E+00 0.  1.
</event>
<event>
 7    1  0.5972636E-013  0.5052886E+02  0.7816164E-02  0.1300439E+00
        -11   -1    0    0    0    0  0.00000000000E+00  0.00000000000E+00  0.45593999997E+02  0.45594000000E+02  0.51100000000E-03 0.  1.
         11   -1    0    0    0    0 -0.00000000000E+00 -0.00000000000E+00 -0.45593999997E+02  0.45594000000E+02  0.51100000000E-03 0. -1.
    9900012    2    1    2    0    0 -0.18935109613E+02  0.90750107346E+01  0.34817694119E+02  0.50528855645E+02  0.29999987218E+02 0.  0.
         12    1    1    2    0    0  0.18935109613E+02 -0.90750107346E+01 -0.34817694119E+02  0.40659144355E+02  0.00000000000E+00 0. -1.
         11    1    3    3    0    0 -0.75221171034E+01  0.77446557423E+01  0.28397850946E+01  0.11163615809E+02  0.51100000000E-03 0. -1.
        -11    1    3    3    0    0 -0.26797756936E+01 -0.75446787268E+01  0.21992460716E+02  0.23404523142E+02  0.51100000000E-03 0.  1.
        -12    1    3    3    0    0 -0.87332168163E+01  0.88750337192E+01  0.99854483084E+01  0.15960716694E+02  0.00000000000E+00 0.  1.
</event>
<event>
 7    1  0.5972636E-013  0.5052890E+02  0.7816164E-02  0.1300439E+00
        -11   -1    0    0    0    0  0.00000000000E+00  0.00000000000E+00  0.45593999997E+02  0.45594000000E+02  0.51100000000E-03 0.  1.
         11   -1    0    0    0    0 -0.00000000000E+00 -0.00000000000E+00 -0.45593999997E+02  0.45594000000E+02  0.51100000000E-03 0. -1.
    9900012    2    1    2    0    0 -0.31489520592E+02  0.24842247463E+02  0.66660004491E+01  0.50528896123E+02  0.30000110254E+02 0.  0.
         12    1    1    2    0    0  0.31489520592E+02 -0.24842247463E+02 -0.66660004491E+01  0.40659103877E+02  0.00000000000E+00 0. -1.
         11    1    3    3    0    0 -0.22286901400E+02  0.26810195651E+02  0.31590472287E+01  0.35006744272E+02  0.51100000000E-03 0. -1.
        -11    1    3    3    0    0 -0.79434082480E+00 -0.14797639545E+00  0.63961399757E+01  0.64469745780E+01  0.51100000000E-03 0.  1.
         12    1    3    3    0    0 -0.84082783670E+01 -0.18199717927E+01 -0.28891867552E+01  0.90751772726E+01  0.00000000000E+00 0. -1.
</event>
<event>
 7    1  0.5972636E-013  0.5052886E+02  0.7816164E-02  0.1300439E+00
        -11   -1    0    0    0    0  0.00000000000E+00  0.00000000000E+00  0.45593999997E+02  0.45594000000E+02  0.51100000000E-03 0. -1.
         11   -1    0    0    0    0 -0.00000000000E+00 -0.00000000000E+00 -0.45593999997E+02  0.45594000000E+02  0.51100000000E-03 0.  1.
    9900012    2    1    2    0    0 -0.39592229149E+01 -0.31651846590E+02 -0.25212109387E+02  0.50528864515E+02  0.30000014181E+02 0.  0.
         12    1    1    2    0    0  0.39592229149E+01  0.31651846590E+02  0.25212109387E+02  0.40659135485E+02  0.00000000000E+00 0. -1.
         11    1    3    3    0    0  0.26489203924E+01 -0.31931892869E+01 -0.15557503950E+02  0.16101216305E+02  0.51100000000E-03 0. -1.
        -11    1    3    3    0    0 -0.70210279041E+01 -0.23156335806E+02 -0.93658080699E+00  0.24215447645E+02  0.51100000000E-03 0.  1.
        -12    1    3    3    0    0  0.41288459683E+00 -0.53023214967E+01 -0.87180246295E+01  0.10212200565E+02  0.00000000000E+00 0.  1.
</event>
<event>
 7    1  0.5972636E-013  0.5052887E+02  0.7816164E-02  0.1300439E+00
        -11   -1    0    0    0    0  0.00000000000E+00  0.00000000000E+00  0.45593999997E+02  0.45594000000E+02  0.51100000000E-03 0.  1.
         11   -1    0    0    0    0 -0.00000000000E+00 -0.00000000000E+00 -0.45593999997E+02  0.45594000000E+02  0.51100000000E-03 0. -1.
    9900012    2    1    2    0    0  0.52546062594E+01 -0.88768009404E+01  0.39328824600E+02  0.50528869091E+02  0.30000028089E+02 0.  0.
         12    1    1    2    0    0 -0.52546062594E+01  0.88768009404E+01 -0.39328824600E+02  0.40659130909E+02  0.00000000000E+00 0. -1.
         11    1    3    3    0    0  0.78430291148E+00  0.55783116972E+01 -0.22443580411E+01  0.60638136289E+01  0.51100000000E-03 0. -1.
        -11    1    3    3    0    0  0.57833504516E+00 -0.90698456821E+01  0.25582497470E+02  0.27148862760E+02  0.51100000000E-03 0.  1.
        -12    1    3    3    0    0  0.38919683027E+01 -0.53852669555E+01  0.15990685171E+02  0.17316192702E+02  0.00000000000E+00 0.  1.
</event>
<event>
 7    1  0.5972636E-013  0.5052886E+02  0.7816164E-02  0.1300439E+00
        -11   -1    0    0    0    0  0.00000000000E+00  0.00000000000E+00  0.45593999997E+02  0.45594000000E+02  0.51100000000E-03 0. -1.
         11   -1    0    0    0    0 -0.00000000000E+00 -0.00000000000E+00 -0.45593999997E+02  0.45594000000E+02  0.51100000000E-03 0.  1.
    9900012    2    1    2    0    0 -0.33464253607E+02  0.36841533240E+01 -0.22797725346E+02  0.50528861591E+02  0.30000005293E+02 0.  0.
         12    1    1    2    0    0  0.33464253607E+02 -0.36841533240E+01  0.22797725346E+02  0.40659138409E+02  0.00000000000E+00 0. -1.
         11    1    3    3    0    0 -0.18411146864E+02 -0.20292563185E+01 -0.43555424140E+00  0.18527760734E+02  0.51100000000E-03 0. -1.
        -11    1    3    3    0    0  0.59640541894E-03  0.43635429796E+01 -0.14134356532E+02  0.14792584038E+02  0.51100000000E-03 0.  1.
        -12    1    3    3    0    0 -0.15053703149E+02  0.13498666629E+01 -0.82278145727E+01  0.17208516820E+02  0.00000000000E+00 0.  1.
</event>
<event>
 7    1  0.5972636E-013  0.5052886E+02  0.7816164E-02  0.1300439E+00
        -11   -1    0    0    0    0  0.00000000000E+00  0.00000000000E+00  0.45593999997E+02  0.45594000000E+02  0.51100000000E-03 0.  1.
         11   -1    0    0    0    0 -0.00000000000E+00 -0.00000000000E+00 -0.45593999997E+02  0.45594000000E+02  0.51100000000E-03 0. -1.
    9900012    2    1    2    0    0 -0.27423325557E+01  0.69712491178E+00  0.40560567603E+02  0.50528855699E+02  0.29999987382E+02 0.  0.
         12    1    1    2    0    0  0.27423325557E+01 -0.69712491178E+00 -0.40560567603E+02  0.40659144301E+02  0.00000000000E+00 0. -1.
         11    1    3    3    0    0 -0.67004271574E+00  0.70761302002E+01  0.25350422208E+02  0.26328017059E+02  0.51100000000E-03 0. -1.
        -11    1    3    3    0    0 -0.84443609997E+01 -0.85530831670E+01  0.10745491369E+02  0.16122284248E+02  0.51100000000E-03 0.  1.
        -12    1    3    3    0    0  0.63720711597E+01  0.21740778786E+01  0.44646540260E+01  0.80785543916E+01  0.00000000000E+00 0.  1.
</event>
<event>
 7    1  0.5972636E-013  0.5052885E+02  0.7816164E-02  0.1300439E+00
        -11   -1    0    0    0    0  0.00000000000E+00  0.00000000000E+00  0.45593999997E+02  0.45594000000E+02  0.51100000000E-03 0.  1.
         11   -1    0    0    0    0 -0.00000000000E+00 -0.00000000000E+00 -0.45593999997E+02  0.45594000000E+02  0.51100000000E-03 0. -1.
    9900012    2    1    2    0    0 -0.19142904993E+02  0.31180211615E+02  0.17734436897E+02  0.50528847771E+02  0.29999963284E+02 0.  0.
         12    1    1    2    0    0  0.19142904993E+02 -0.31180211615E+02 -0.17734436897E+02  0.40659152229E+02  0.00000000000E+00 0. -1.
         11    1    3    3    0    0 -0.31738987885E+01  0.18924994024E+02  0.18629793884E+02  0.26745060343E+02  0.51100000000E-03 0. -1.
        -11    1    3    3    0    0 -0.11947582482E+02  0.34810578286E+01  0.38529633314E+01  0.13027195303E+02  0.51100000000E-03 0.  1.
         12    1    3    3    0    0 -0.40214237223E+01  0.87741597623E+01 -0.47483203184E+01  0.10756592125E+02  0.00000000000E+00 0. -1.
</event>
<event>
 7    1  0.5972636E-013  0.5052887E+02  0.7816164E-02  0.1300439E+00
        -11   -1    0    0    0    0  0.00000000000E+00  0.00000000000E+00  0.45593999997E+02  0.45594000000E+02  0.51100000000E-03 0. -1.
         11   -1    0    0    0    0 -0.00000000000E+00 -0.00000000000E+00 -0.45593999997E+02  0.45594000000E+02  0.51100000000E-03 0.  1.
    9900012    2    1    2    0    0 -0.24185025807E+02  0.30560146434E+02 -0.11589943241E+02  0.50528870549E+02  0.30000032522E+02 0.  0.
         12    1    1    2    0    0  0.24185025807E+02 -0.30560146434E+02  0.11589943241E+02  0.40659129451E+02  0.00000000000E+00 0. -1.
         11    1    3    3    0    0 -0.53658040044E+00  0.19870037550E+01  0.12774994605E+01  0.24224177140E+01  0.51100000000E-03 0. -1.
        -11    1    3    3    0    0 -0.12847670232E+02  0.27749013707E+02  0.89551663758E+00  0.30592030701E+02  0.51100000000E-03 0.  1.
        -12    1    3    3    0    0 -0.10800775175E+02  0.82412897215E+00 -0.13762959339E+02  0.17514422135E+02  0.00000000000E+00 0.  1.
</event>
<event>
 7    1  0.5972636E-013  0.5052887E+02  0.7816164E-02  0.1300439E+00
        -11   -1    0    0    0    0  0.00000000000E+00  0.00000000000E+00  0.45593999997E+02  0.45594000000E+02  0.51100000000E-03 0. -1.
         11   -1    0    0    0    0 -0.00000000000E+00 -0.00000000000E+00 -0.45593999997E+02  0.45594000000E+02  0.51100000000E-03 0.  1.
    9900012    2    1    2    0    0 -0.28854520134E+02  0.28204748757E+02  0.50073876603E+01  0.50528866761E+02  0.30000021006E+02 0.  0.
         12    1    1    2    0    0  0.28854520134E+02 -0.28204748757E+02 -0.50073876603E+01  0.40659133239E+02  0.00000000000E+00 0. -1.
         11    1    3    3    0    0  0.48517748948E+01 -0.20538531537E+00  0.21851882490E+01  0.53251244776E+01  0.51100000000E-03 0. -1.
        -11    1    3    3    0    0 -0.12453418544E+02  0.59802949897E+01 -0.19017053491E+01  0.13945179995E+02  0.51100000000E-03 0.  1.
         12    1    3    3    0    0 -0.21252876485E+02  0.22429839082E+02  0.47239047605E+01  0.31258562288E+02  0.00000000000E+00 0. -1.
</event>
<event>
 7    1  0.5972636E-013  0.5052881E+02  0.7816164E-02  0.1300439E+00
        -11   -1    0    0    0    0  0.00000000000E+00  0.00000000000E+00  0.45593999997E+02  0.45594000000E+02  0.51100000000E-03 0. -1.
         11   -1    0    0    0    0 -0.00000000000E+00 -0.00000000000E+00 -0.45593999997E+02  0.45594000000E+02  0.51100000000E-03 0.  1.
    9900012    2    1    2    0    0  0.30128573987E+02 -0.17527652425E+02 -0.20933715471E+02  0.50528806532E+02  0.29999837935E+02 0.  0.
         12    1    1    2    0    0 -0.30128573987E+02  0.17527652425E+02  0.20933715471E+02  0.40659193468E+02  0.00000000000E+00 0. -1.
         11    1    3    3    0    0  0.10249145479E+02  0.28258029617E+00  0.59498035078E+01  0.11854323967E+02  0.51100000000E-03 0. -1.
        -11    1    3    3    0    0  0.13628555849E+02 -0.79056886758E+01 -0.12411778387E+02  0.20057160590E+02  0.51100000000E-03 0.  1.
         12    1    3    3    0    0  0.62508726589E+01 -0.99045440455E+01 -0.14471740592E+02  0.18617321975E+02  0.00000000000E+00 0. -1.
</event>
<event>
 7    1  0.5972636E-013  0.5052885E+02  0.7816164E-02  0.1300439E+00
        -11   -1    0    0    0    0  0.00000000000E+00  0.00000000000E+00  0.45593999997E+02  0.45594000000E+02  0.51100000000E-03 0.  1.
         11   -1    0    0    0    0 -0.00000000000E+00 -0.00000000000E+00 -0.45593999997E+02  0.45594000000E+02  0.51100000000E-03 0. -1.
    9900012    2    1    2    0    0  0.18894315525E+02 -0.32563754741E+02  0.15354900398E+02  0.50528852834E+02  0.29999978675E+02 0.  0.
         12    1    1    2    0    0 -0.18894315525E+02  0.32563754741E+02 -0.15354900398E+02  0.40659147166E+02  0.00000000000E+00 0. -1.
         11    1    3    3    0    0 -0.22976277870E+01 -0.22241932790E+02  0.10416200497E+02  0.24667385365E+02  0.51100000000E-03 0. -1.
        -11    1    3    3    0    0  0.81774147418E+00 -0.14081025939E+01  0.31560745969E+01  0.35513745446E+01  0.51100000000E-03 0.  1.
         12    1    3    3    0    0  0.20374201838E+02 -0.89137193572E+01  0.17826253039E+01  0.22310092924E+02  0.00000000000E+00 0. -1.
</event>
<event>
 7    1  0.5972636E-013  0.5052886E+02  0.7816164E-02  0.1300439E+00
        -11   -1    0    0    0    0  0.00000000000E+00  0.00000000000E+00  0.45593999997E+02  0.45594000000E+02  0.51100000000E-03 0.  1.
         11   -1    0    0    0    0 -0.00000000000E+00 -0.00000000000E+00 -0.45593999997E+02  0.45594000000E+02  0.51100000000E-03 0. -1.
    9900012    2    1    2    0    0 -0.12257149469E+02 -0.14629479507E+02  0.35901344979E+02  0.50528856440E+02  0.29999989636E+02 0.  0.
         12    1    1    2    0    0  0.12257149469E+02  0.14629479507E+02 -0.35901344979E+02  0.40659143560E+02  0.00000000000E+00 0. -1.
         11    1    3    3    0    0  0.61801330185E+01 -0.56140343476E+01  0.32403444600E+01  0.89560738196E+01  0.51100000000E-03 0. -1.
        -11    1    3    3    0    0 -0.13725849055E+02 -0.11183791036E+02  0.31683656088E+02  0.36295043430E+02  0.51100000000E-03 0.  1.
         12    1    3    3    0    0 -0.47114334320E+01  0.21683458766E+01  0.97734443019E+00  0.52777391902E+01  0.00000000000E+00 0. -1.
</event>
<event>
 7    1  0.5972636E-013  0.5052884E+02  0.7816164E-02  0.1300439E+00
        -11   -1    0    0    0    0  0.00000000000E+00  0.00000000000E+00  0.45593999997E+02  0.45594000000E+02  0.51100000000E-03 0.  1.
         11   -1    0    0    0    0 -0.00000000000E+00 -0.00000000000E+00 -0.45593999997E+02  0.45594000000E+02  0.51100000000E-03 0. -1.
    9900012    2    1    2    0    0  0.14894761243E+02  0.22504271640E+02  0.30411690366E+02  0.50528842785E+02  0.29999948128E+02 0.  0.
         12    1    1    2    0    0 -0.14894761243E+02 -0.22504271640E+02 -0.30411690366E+02  0.40659157215E+02  0.00000000000E+00 0. -1.
         11    1    3    3    0    0 -0.36261014036E+01 -0.30747204446E+01  0.14817097512E+01  0.49797571476E+01  0.51100000000E-03 0. -1.
        -11    1    3    3    0    0  0.67341149168E+01  0.19656382133E+02  0.23266020234E+02  0.31193418537E+02  0.51100000000E-03 0.  1.
         12    1    3    3    0    0  0.11786747729E+02  0.59226099520E+01  0.56639603810E+01  0.14355667100E+02  0.00000000000E+00 0. -1.
</event>
<event>
 7    1  0.5972636E-013  0.5052886E+02  0.7816164E-02  0.1300439E+00
        -11   -1    0    0    0    0  0.00000000000E+00  0.00000000000E+00  0.45593999997E+02  0.45594000000E+02  0.51100000000E-03 0. -1.
         11   -1    0    0    0    0 -0.00000000000E+00 -0.00000000000E+00 -0.45593999997E+02  0.45594000000E+02  0.51100000000E-03 0.  1.
    9900012    2    1    2    0    0 -0.17311325171E+02  0.67499349518E+01 -0.36165204597E+02  0.50528860504E+02  0.30000001987E+02 0.  0.
         12    1    1    2    0    0  0.17311325171E+02 -0.67499349518E+01  0.36165204597E+02  0.40659139496E+02  0.00000000000E+00 0. -1.
         11    1    3    3    0    0 -0.71912678758E+01  0.10782271701E+02 -0.35838139749E+01  0.13446763163E+02  0.51100000000E-03 0. -1.
        -11    1    3    3    0    0 -0.94152700037E-01 -0.30640696173E+01 -0.22923240179E+02  0.23127306975E+02  0.51100000000E-03 0.  1.
        -12    1    3    3    0    0 -0.10025904595E+02 -0.96826713144E+00 -0.96581504436E+01  0.13954790366E+02  0.00000000000E+00 0.  1.
</event>
<event>
 7    1  0.5972636E-013  0.5052886E+02  0.7816164E-02  0.1300439E+00
        -11   -1    0    0    0    0  0.00000000000E+00  0.00000000000E+00  0.45593999997E+02  0.45594000000E+02  0.51100000000E-03 0.  1.
         11   -1    0    0    0    0 -0.00000000000E+00 -0.00000000000E+00 -0.45593999997E+02  0.45594000000E+02  0.51100000000E-03 0. -1.
    9900012    2    1    2    0    0  0.69241253391E+01  0.19025874154E+02  0.35259588307E+02  0.50528856298E+02  0.29999989203E+02 0.  0.
         12    1    1    2    0    0 -0.69241253391E+01 -0.19025874154E+02 -0.35259588307E+02  0.40659143702E+02  0.00000000000E+00 0. -1.
         11    1    3    3    0    0  0.71076126705E+01  0.50624139773E+01  0.48041671292E+01  0.99612356271E+01  0.51100000000E-03 0. -1.
        -11    1    3    3    0    0 -0.26352962009E+01  0.15809166126E+02  0.32931398999E+02  0.36624466685E+02  0.51100000000E-03 0.  1.
        -12    1    3    3    0    0  0.24518088695E+01 -0.18457059495E+01 -0.24759778215E+01  0.39431539860E+01  0.00000000000E+00 0.  1.
</event>
<event>
 7    1  0.5972636E-013  0.5052885E+02  0.7816164E-02  0.1300439E+00
        -11   -1    0    0    0    0  0.00000000000E+00  0.00000000000E+00  0.45593999997E+02  0.45594000000E+02  0.51100000000E-03 0.  1.
         11   -1    0    0    0    0 -0.00000000000E+00 -0.00000000000E+00 -0.45593999997E+02  0.45594000000E+02  0.51100000000E-03 0. -1.
    9900012    2    1    2    0    0  0.26861511575E+02  0.14898693718E+01  0.30486163120E+02  0.50528847812E+02  0.29999963411E+02 0.  0.
         12    1    1    2    0    0 -0.26861511575E+02 -0.14898693718E+01 -0.30486163120E+02  0.40659152188E+02  0.00000000000E+00 0. -1.
         11    1    3    3    0    0  0.26065612051E+01 -0.83543875474E+01  0.91585970554E+01  0.12667669592E+02  0.51100000000E-03 0. -1.
        -11    1    3    3    0    0  0.15573829865E+02  0.46983076022E+01  0.22431754856E+02  0.27709238480E+02  0.51100000000E-03 0.  1.
         12    1    3    3    0    0  0.86811205055E+01  0.51459493170E+01 -0.11041887914E+01  0.10151939740E+02  0.00000000000E+00 0. -1.
</event>
<event>
 7    1  0.5972636E-013  0.5052887E+02  0.7816164E-02  0.1300439E+00
        -11   -1    0    0    0    0  0.00000000000E+00  0.00000000000E+00  0.45593999997E+02  0.45594000000E+02  0.51100000000E-03 0. -1.
         11   -1    0    0    0    0 -0.00000000000E+00 -0.00000000000E+00 -0.45593999997E+02  0.45594000000E+02  0.51100000000E-03 0.  1.
    9900012    2    1    2    0    0 -0.23249141788E+02 -0.33243063056E+02  0.27460847144E+01  0.50528870441E+02  0.30000032192E+02 0.  0.
         12    1    1    2    0    0  0.23249141788E+02  0.33243063056E+02 -0.27460847144E+01  0.40659129559E+02  0.00000000000E+00 0. -1.
         11    1    3    3    0    0 -0.40880340376E+01 -0.50222472207E+01 -0.91023609927E+01  0.11170853385E+02  0.51100000000E-03 0. -1.
        -11    1    3    3    0    0 -0.37033103104E+01 -0.18626063691E+02  0.33755288123E+01  0.19288311251E+02  0.51100000000E-03 0.  1.
         12    1    3    3    0    0 -0.15457797440E+02 -0.95947521444E+01  0.84729168948E+01  0.20069705806E+02  0.00000000000E+00 0. -1.
</event>
<event>
 7    1  0.5972636E-013  0.5052886E+02  0.7816164E-02  0.1300439E+00
        -11   -1    0    0    0    0  0.00000000000E+00  0.00000000000E+00  0.45593999997E+02  0.45594000000E+02  0.51100000000E-03 0. -1.
         11   -1    0    0    0    0 -0.00000000000E+00 -0.00000000000E+00 -0.45593999997E+02  0.45594000000E+02  0.51100000000E-03 0.  1.
    9900012    2    1    2    0    0  0.33368206393E+02 -0.17353443909E+02 -0.15446237720E+02  0.50528862367E+02  0.30000007650E+02 0.  0.
         12    1    1    2    0    0 -0.33368206393E+02  0.17353443909E+02  0.15446237720E+02  0.40659137633E+02  0.00000000000E+00 0. -1.
         11    1    3    3    0    0  0.11519418720E+02 -0.25283400025E+01 -0.17784395715E+02  0.21339499573E+02  0.51100000000E-03 0. -1.
        -11    1    3    3    0    0  0.17358789000E+02 -0.60096737812E+01 -0.18167431358E+01  0.18459260288E+02  0.51100000000E-03 0.  1.
         12    1    3    3    0    0  0.44899986728E+01 -0.88154301255E+01  0.41549011306E+01  0.10730102506E+02  0.00000000000E+00 0. -1.
</event>
<event>
 7    1  0.5972636E-013  0.5052887E+02  0.7816164E-02  0.1300439E+00
        -11   -1    0    0    0    0  0.00000000000E+00  0.00000000000E+00  0.45593999997E+02  0.45594000000E+02  0.51100000000E-03 0.  1.
         11   -1    0    0    0    0 -0.00000000000E+00 -0.00000000000E+00 -0.45593999997E+02  0.45594000000E+02  0.51100000000E-03 0. -1.
    9900012    2    1    2    0    0  0.75971534513E+01 -0.30404887931E+02  0.25903490848E+02  0.50528870782E+02  0.30000033229E+02 0.  0.
         12    1    1    2    0    0 -0.75971534513E+01  0.30404887931E+02 -0.25903490848E+02  0.40659129218E+02  0.00000000000E+00 0. -1.
         11    1    3    3    0    0 -0.15540925651E+01 -0.12540827200E+02  0.10052824679E+02  0.16147657256E+02  0.51100000000E-03 0. -1.
        -11    1    3    3    0    0  0.57554248401E+01  0.13502139990E+01  0.13487994627E+02  0.14726642260E+02  0.51100000000E-03 0.  1.
        -12    1    3    3    0    0  0.33958211764E+01 -0.19214274730E+02  0.23626715425E+01  0.19654571266E+02  0.00000000000E+00 0.  1.
</event>
<event>
 7    1  0.5972636E-013  0.5052885E+02  0.7816164E-02  0.1300439E+00
        -11   -1    0    0    0    0  0.00000000000E+00  0.00000000000E+00  0.45593999997E+02  0.45594000000E+02  0.51100000000E-03 0.  1.
         11   -1    0    0    0    0 -0.00000000000E+00 -0.00000000000E+00 -0.45593999997E+02  0.45594000000E+02  0.51100000000E-03 0. -1.
    9900012    2    1    2    0    0  0.10557910150E+01 -0.19735447731E+02  0.35532578510E+02  0.50528846942E+02  0.29999960765E+02 0.  0.
         12    1    1    2    0    0 -0.10557910150E+01  0.19735447731E+02 -0.35532578510E+02  0.40659153058E+02  0.00000000000E+00 0. -1.
         11    1    3    3    0    0 -0.87279804071E+01 -0.47176008166E+01  0.92112513047E+01  0.13538114725E+02  0.51100000000E-03 0. -1.
        -11    1    3    3    0    0  0.15010764169E+02 -0.13291746695E+02  0.17606425735E+02  0.26682949585E+02  0.51100000000E-03 0.  1.
        -12    1    3    3    0    0 -0.52269927470E+01 -0.17261002193E+01  0.87149014706E+01  0.10307782632E+02  0.00000000000E+00 0.  1.
</event>
<event>
 7    1  0.5972636E-013  0.5052888E+02  0.7816164E-02  0.1300439E+00
        -11   -1    0    0    0    0  0.00000000000E+00  0.00000000000E+00  0.45593999997E+02  0.45594000000E+02  0.51100000000E-03 0.  1.
         11   -1    0    0    0    0 -0.00000000000E+00 -0.00000000000E+00 -0.45593999997E+02  0.45594000000E+02  0.51100000000E-03 0. -1.
    9900012    2    1    2    0    0  0.43689933631E+01  0.39084117144E+02  0.10320268240E+02  0.50528877377E+02  0.30000053276E+02 0.  0.
         12    1    1    2    0    0 -0.43689933631E+01 -0.39084117144E+02 -0.10320268240E+02  0.40659122623E+02  0.00000000000E+00 0. -1.
         11    1    3    3    0    0 -0.47311874073E+01  0.24290304034E+02 -0.51656745058E+01  0.25280174005E+02  0.51100000000E-03 0. -1.
        -11    1    3    3    0    0  0.78181927338E+01  0.16197144331E+02  0.13412218123E+02  0.22435668418E+02  0.51100000000E-03 0.  1.
         12    1    3    3    0    0  0.12819880365E+01 -0.14033312218E+01  0.20737246229E+01  0.28130349545E+01  0.00000000000E+00 0. -1.
</event>
<event>
 7    1  0.5972636E-013  0.5052875E+02  0.7816164E-02  0.1300439E+00
        -11   -1    0    0    0    0  0.00000000000E+00  0.00000000000E+00  0.45593999997E+02  0.45594000000E+02  0.51100000000E-03 0. -1.
         11   -1    0    0    0    0 -0.00000000000E+00 -0.00000000000E+00 -0.45593999997E+02  0.45594000000E+02  0.51100000000E-03 0.  1.
    9900012    2    1    2    0    0 -0.28520010800E+02 -0.24021339592E+02 -0.16209825762E+02  0.50528754766E+02  0.29999680585E+02 0.  0.
         12    1    1    2    0    0  0.28520010800E+02  0.24021339592E+02  0.16209825762E+02  0.40659245234E+02  0.00000000000E+00 0. -1.
         11    1    3    3    0    0  0.22142267390E+01 -0.11177919349E+02 -0.12087369170E+02  0.16611838391E+02  0.51100000000E-03 0. -1.
        -11    1    3    3    0    0 -0.83464573866E+01 -0.42340935938E+01  0.92791877035E+00  0.94048887804E+01  0.51100000000E-03 0.  1.
         12    1    3    3    0    0 -0.22387780152E+02 -0.86093266494E+01 -0.50503753618E+01  0.24512027594E+02  0.00000000000E+00 0. -1.
</event>
<event>
 7    1  0.5972636E-013  0.5052885E+02  0.7816164E-02  0.1300439E+00
        -11   -1    0    0    0    0  0.00000000000E+00  0.00000000000E+00  0.45593999997E+02  0.45594000000E+02  0.51100000000E-03 0.  1.
         11   -1    0    0    0    0 -0.00000000000E+00 -0.00000000000E+00 -0.45593999997E+02  0.45594000000E+02  0.51100000000E-03 0. -1.
    9900012    2    1    2    0    0  0.17270802026E+02  0.12660576687E+02  0.34562925674E+02  0.50528848068E+02  0.29999964188E+02 0.  0.
         12    1    1    2    0    0 -0.17270802026E+02 -0.12660576687E+02 -0.34562925674E+02  0.40659151932E+02  0.00000000000E+00 0. -1.
         11    1    3    3    0    0  0.18826166975E+00 -0.31881003151E-01 -0.17947366494E+01  0.18048653015E+01  0.51100000000E-03 0. -1.
        -11    1    3    3    0    0  0.55004722147E+01 -0.27767335955E+01  0.26155872269E+02  0.26871827226E+02  0.51100000000E-03 0.  1.
        -12    1    3    3    0    0  0.11582068141E+02  0.15469191286E+02  0.10201790054E+02  0.21852155541E+02  0.00000000000E+00 0.  1.
</event>
<event>
 7    1  0.5972636E-013  0.5052886E+02  0.7816164E-02  0.1300439E+00
        -11   -1    0    0    0    0  0.00000000000E+00  0.00000000000E+00  0.45593999997E+02  0.45594000000E+02  0.51100000000E-03 0.  1.
         11   -1    0    0    0    0 -0.00000000000E+00 -0.00000000000E+00 -0.45593999997E+02  0.45594000000E+02  0.51100000000E-03 0. -1.
    9900012    2    1    2    0    0  0.18857709754E+02  0.34057297468E+02  0.11732552899E+02  0.50528861722E+02  0.30000005689E+02 0.  0.
         12    1    1    2    0    0 -0.18857709754E+02 -0.34057297468E+02 -0.11732552899E+02  0.40659138278E+02  0.00000000000E+00 0. -1.
         11    1    3    3    0    0  0.94605458225E+01  0.13596616350E+02 -0.44136929472E+01  0.17142070736E+02  0.51100000000E-03 0. -1.
        -11    1    3    3    0    0 -0.18330145922E+01  0.29542846798E+01  0.11582641206E+02  0.12093193045E+02  0.51100000000E-03 0.  1.
        -12    1    3    3    0    0  0.11230178524E+02  0.17506396438E+02  0.45636046409E+01  0.21293597941E+02  0.00000000000E+00 0.  1.
</event>
<event>
 7    1  0.5972636E-013  0.5052886E+02  0.7816164E-02  0.1300439E+00
        -11   -1    0    0    0    0  0.00000000000E+00  0.00000000000E+00  0.45593999997E+02  0.45594000000E+02  0.51100000000E-03 0.  1.
         11   -1    0    0    0    0 -0.00000000000E+00 -0.00000000000E+00 -0.45593999997E+02  0.45594000000E+02  0.51100000000E-03 0. -1.
    9900012    2    1    2    0    0 -0.18429748081E+02  0.26880457371E+01  0.36142557004E+02  0.50528860425E+02  0.30000001747E+02 0.  0.
         12    1    1    2    0    0  0.18429748081E+02 -0.26880457371E+01 -0.36142557004E+02  0.40659139575E+02  0.00000000000E+00 0. -1.
         11    1    3    3    0    0 -0.11906552415E+02 -0.74465481213E+01  0.62478473501E+01  0.15370512877E+02  0.51100000000E-03 0. -1.
        -11    1    3    3    0    0 -0.25695250086E+01  0.11598426496E+02  0.12437791193E+02  0.17199552493E+02  0.51100000000E-03 0.  1.
        -12    1    3    3    0    0 -0.39536706578E+01 -0.14638326373E+01  0.17456918461E+02  0.17958795055E+02  0.00000000000E+00 0.  1.
</event>
<event>
 7    1  0.5972636E-013  0.5052886E+02  0.7816164E-02  0.1300439E+00
        -11   -1    0    0    0    0  0.00000000000E+00  0.00000000000E+00  0.45593999997E+02  0.45594000000E+02  0.51100000000E-03 0.  1.
         11   -1    0    0    0    0 -0.00000000000E+00 -0.00000000000E+00 -0.45593999997E+02  0.45594000000E+02  0.51100000000E-03 0. -1.
    9900012    2    1    2    0    0 -0.89868295567E+01 -0.35642301511E+02  0.17378968995E+02  0.50528864178E+02  0.30000013155E+02 0.  0.
         12    1    1    2    0    0  0.89868295567E+01  0.35642301511E+02 -0.17378968995E+02  0.40659135822E+02  0.00000000000E+00 0. -1.
         11    1    3    3    0    0  0.46446331863E+01 -0.29750078967E+01  0.19645183387E+01  0.58551363764E+01  0.51100000000E-03 0. -1.
        -11    1    3    3    0    0 -0.48539608016E+01 -0.27418682449E+02  0.19140451667E+02  0.33789080677E+02  0.51100000000E-03 0.  1.
        -12    1    3    3    0    0 -0.87775019414E+01 -0.52486111652E+01 -0.37260010108E+01  0.10884647125E+02  0.00000000000E+00 0.  1.
</event>
<event>
 7    1  0.5972636E-013  0.5052886E+02  0.7816164E-02  0.1300439E+00
        -11   -1    0    0    0    0  0.00000000000E+00  0.00000000000E+00  0.45593999997E+02  0.45594000000E+02  0.51100000000E-03 0.  1.
         11   -1    0    0    0    0 -0.00000000000E+00 -0.00000000000E+00 -0.45593999997E+02  0.45594000000E+02  0.51100000000E-03 0. -1.
    9900012    2    1    2    0    0  0.33575614572E+02 -0.22720151488E+02 -0.31046043321E+01  0.50528859016E+02  0.29999997465E+02 0.  0.
         12    1    1    2    0    0 -0.33575614572E+02  0.22720151488E+02  0.31046043321E+01  0.40659140984E+02  0.00000000000E+00 0. -1.
         11    1    3    3    0    0  0.15899380413E+01 -0.55908197615E+01  0.46038917084E+01  0.74149165676E+01  0.51100000000E-03 0. -1.
        -11    1    3    3    0    0  0.34977987816E+02 -0.17829648049E+02 -0.64198719793E+01  0.39781537648E+02  0.51100000000E-03 0.  1.
         12    1    3    3    0    0 -0.29923112855E+01  0.70031632212E+00 -0.12886240612E+01  0.33324048001E+01  0.00000000000E+00 0. -1.
</event>
<event>
 7    1  0.5972636E-013  0.5052887E+02  0.7816164E-02  0.1300439E+00
        -11   -1    0    0    0    0  0.00000000000E+00  0.00000000000E+00  0.45593999997E+02  0.45594000000E+02  0.51100000000E-03 0. -1.
         11   -1    0    0    0    0 -0.00000000000E+00 -0.00000000000E+00 -0.45593999997E+02  0.45594000000E+02  0.51100000000E-03 0.  1.
    9900012    2    1    2    0    0 -0.19538758378E+02  0.63133283178E+01 -0.35093362062E+02  0.50528865058E+02  0.30000015830E+02 0.  0.
         12    1    1    2    0    0  0.19538758378E+02 -0.63133283178E+01  0.35093362062E+02  0.40659134942E+02  0.00000000000E+00 0. -1.
         11    1    3    3    0    0 -0.83389081247E+01  0.14526450809E+02 -0.82829640848E+01  0.18685894576E+02  0.51100000000E-03 0. -1.
        -11    1    3    3    0    0 -0.11646913196E+02 -0.35468008081E+01 -0.21883527212E+02  0.25042347064E+02  0.51100000000E-03 0.  1.
         12    1    3    3    0    0  0.44706294260E+00 -0.46663216835E+01 -0.49268707655E+01  0.68006234176E+01  0.00000000000E+00 0. -1.
</event>
<event>
 7    1  0.5972636E-013  0.5052886E+02  0.7816164E-02  0.1300439E+00
        -11   -1    0    0    0    0  0.00000000000E+00  0.00000000000E+00  0.45593999997E+02  0.45594000000E+02  0.51100000000E-03 0. -1.
         11   -1    0    0    0    0 -0.00000000000E+00 -0.00000000000E+00 -0.45593999997E+02  0.45594000000E+02  0.51100000000E-03 0.  1.
    9900012    2    1    2    0    0 -0.21252396638E+02 -0.26516471285E+02 -0.22324378590E+02  0.50528862138E+02  0.30000006954E+02 0.  0.
         12    1    1    2    0    0  0.21252396638E+02  0.26516471285E+02  0.22324378590E+02  0.40659137862E+02  0.00000000000E+00 0. -1.
         11    1    3    3    0    0 -0.62017425253E+01  0.83838474967E+00 -0.10026679986E+02  0.11819425161E+02  0.51100000000E-03 0. -1.
        -11    1    3    3    0    0 -0.19079791377E+02 -0.22964629651E+02 -0.68424047133E+01  0.30630559194E+02  0.51100000000E-03 0.  1.
        -12    1    3    3    0    0  0.40291372645E+01 -0.43902263842E+01 -0.54552938910E+01  0.80788777833E+01  0.00000000000E+00 0.  1.
</event>
<event>
 7    1  0.5972636E-013  0.5052883E+02  0.7816164E-02  0.1300439E+00
        -11   -1    0    0    0    0  0.00000000000E+00  0.00000000000E+00  0.45593999997E+02  0.45594000000E+02  0.51100000000E-03 0.  1.
         11   -1    0    0    0    0 -0.00000000000E+00 -0.00000000000E+00 -0.45593999997E+02  0.45594000000E+02  0.51100000000E-03 0. -1.
    9900012    2    1    2    0    0  0.39597359981E+02 -0.72364404093E+01  0.57315581024E+01  0.50528834421E+02  0.29999922707E+02 0.  0.
         12    1    1    2    0    0 -0.39597359981E+02  0.72364404093E+01 -0.57315581024E+01  0.40659165579E+02  0.00000000000E+00 0. -1.
         11    1    3    3    0    0 -0.18475759040E+00  0.55237179715E+01  0.37635768018E+01  0.66865616127E+01  0.51100000000E-03 0. -1.
        -11    1    3    3    0    0  0.26059907118E+02 -0.17363643326E+01  0.24626152145E+01  0.26233531863E+02  0.51100000000E-03 0.  1.
         12    1    3    3    0    0  0.13722210454E+02 -0.11023794048E+02 -0.49463391394E+00  0.17608740945E+02  0.00000000000E+00 0. -1.
</event>
<event>
 7    1  0.5972636E-013  0.5052885E+02  0.7816164E-02  0.1300439E+00
        -11   -1    0    0    0    0  0.00000000000E+00  0.00000000000E+00  0.45593999997E+02  0.45594000000E+02  0.51100000000E-03 0.  1.
         11   -1    0    0    0    0 -0.00000000000E+00 -0.00000000000E+00 -0.45593999997E+02  0.45594000000E+02  0.51100000000E-03 0. -1.
    9900012    2    1    2    0    0  0.32858269496E+02 -0.10730639173E+02 -0.21409193938E+02  0.50528854947E+02  0.29999985098E+02 0.  0.
         12    1    1    2    0    0 -0.32858269496E+02  0.10730639173E+02  0.21409193938E+02  0.40659145053E+02  0.00000000000E+00 0. -1.
         11    1    3    3    0    0  0.34101407599E+02 -0.11988532824E+02 -0.16658713881E+02  0.39801302340E+02  0.51100000000E-03 0. -1.
        -11    1    3    3    0    0 -0.82130806512E+00 -0.34921070676E+01  0.51439148009E+00  0.36240802371E+01  0.51100000000E-03 0.  1.
         12    1    3    3    0    0 -0.42183003806E+00  0.47500007188E+01 -0.52648715376E+01  0.71034723704E+01  0.00000000000E+00 0. -1.
</event>
<event>
 7    1  0.5972636E-013  0.5052885E+02  0.7816164E-02  0.1300439E+00
        -11   -1    0    0    0    0  0.00000000000E+00  0.00000000000E+00  0.45593999997E+02  0.45594000000E+02  0.51100000000E-03 0.  1.
         11   -1    0    0    0    0 -0.00000000000E+00 -0.00000000000E+00 -0.45593999997E+02  0.45594000000E+02  0.51100000000E-03 0. -1.
    9900012    2    1    2    0    0 -0.33896295350E+01  0.23282570196E+02  0.33160200346E+02  0.50528849120E+02  0.29999967384E+02 0.  0.
         12    1    1    2    0    0  0.33896295350E+01 -0.23282570196E+02 -0.33160200346E+02  0.40659150880E+02  0.00000000000E+00 0. -1.
         11    1    3    3    0    0 -0.35549176285E+01 -0.57122339672E+00  0.69201880529E+01  0.78008165254E+01  0.51100000000E-03 0. -1.
        -11    1    3    3    0    0  0.67864429551E+01  0.23165791074E+02  0.26774583388E+02  0.36049798889E+02  0.51100000000E-03 0.  1.
        -12    1    3    3    0    0 -0.66211548616E+01  0.68800251935E+00 -0.53457109559E+00  0.66782337054E+01  0.00000000000E+00 0.  1.
</event>
<event>
 7    1  0.5972636E-013  0.5052885E+02  0.7816164E-02  0.1300439E+00
        -11   -1    0    0    0    0  0.00000000000E+00  0.00000000000E+00  0.45593999997E+02  0.45594000000E+02  0.51100000000E-03 0.  1.
         11   -1    0    0    0    0 -0.00000000000E+00 -0.00000000000E+00 -0.45593999997E+02  0.45594000000E+02  0.51100000000E-03 0. -1.
    9900012    2    1    2    0    0  0.25100674913E+02 -0.23435050199E+02  0.21769722254E+02  0.50528852617E+02  0.29999978013E+02 0.  0.
         12    1    1    2    0    0 -0.25100674913E+02  0.23435050199E+02 -0.21769722254E+02  0.40659147383E+02  0.00000000000E+00 0. -1.
         11    1    3    3    0    0  0.96146716043E+01 -0.11742430997E+01 -0.55500057973E+01  0.11163481604E+02  0.51100000000E-03 0. -1.
        -11    1    3    3    0    0  0.12219930717E+02 -0.15382562994E+02  0.14359974212E+02  0.24334313441E+02  0.51100000000E-03 0.  1.
         12    1    3    3    0    0  0.32660725917E+01 -0.68782441056E+01  0.12959753839E+02  0.15031057572E+02  0.00000000000E+00 0. -1.
</event>
<event>
 7    1  0.5972636E-013  0.5052886E+02  0.7816164E-02  0.1300439E+00
        -11   -1    0    0    0    0  0.00000000000E+00  0.00000000000E+00  0.45593999997E+02  0.45594000000E+02  0.51100000000E-03 0. -1.
         11   -1    0    0    0    0 -0.00000000000E+00 -0.00000000000E+00 -0.45593999997E+02  0.45594000000E+02  0.51100000000E-03 0.  1.
    9900012    2    1    2    0    0 -0.34020112246E+02  0.13356126005E+02 -0.17816036633E+02  0.50528864490E+02  0.30000014105E+02 0.  0.
         12    1    1    2    0    0  0.34020112246E+02 -0.13356126005E+02  0.17816036633E+02  0.40659135510E+02  0.00000000000E+00 0. -1.
         11    1    3    3    0    0 -0.14626121207E+02  0.16198030380E+02 -0.16947389125E+02  0.27631750002E+02  0.51100000000E-03 0. -1.
        -11    1    3    3    0    0 -0.87910403309E+01 -0.25041382651E+01 -0.61795944367E+01  0.11033607126E+02  0.51100000000E-03 0.  1.
         12    1    3    3    0    0 -0.10602950708E+02 -0.33776610979E+00  0.53109469284E+01  0.11863507362E+02  0.00000000000E+00 0. -1.
</event>
<event>
 7    1  0.5972636E-013  0.5052886E+02  0.7816164E-02  0.1300439E+00
        -11   -1    0    0    0    0  0.00000000000E+00  0.00000000000E+00  0.45593999997E+02  0.45594000000E+02  0.51100000000E-03 0.  1.
         11   -1    0    0    0    0 -0.00000000000E+00 -0.00000000000E+00 -0.45593999997E+02  0.45594000000E+02  0.51100000000E-03 0. -1.
    9900012    2    1    2    0    0  0.15416402549E+02  0.25750046082E+02  0.27430550569E+02  0.50528862708E+02  0.30000008688E+02 0.  0.
         12    1    1    2    0    0 -0.15416402549E+02 -0.25750046082E+02 -0.27430550569E+02  0.40659137292E+02  0.00000000000E+00 0. -1.
         11    1    3    3    0    0 -0.54113166637E+01  0.18971685959E+02  0.14698641716E+02  0.24601977252E+02  0.51100000000E-03 0. -1.
        -11    1    3    3    0    0  0.14641260502E+02  0.66968359400E+01  0.11010074187E+02  0.19504764919E+02  0.51100000000E-03 0.  1.
        -12    1    3    3    0    0  0.61864587109E+01  0.81524183159E-01  0.17218346660E+01  0.64221205370E+01  0.00000000000E+00 0.  1.
</event>
<event>
 7    1  0.5972636E-013  0.5052885E+02  0.7816164E-02  0.1300439E+00
        -11   -1    0    0    0    0  0.00000000000E+00  0.00000000000E+00  0.45593999997E+02  0.45594000000E+02  0.51100000000E-03 0. -1.
         11   -1    0    0    0    0 -0.00000000000E+00 -0.00000000000E+00 -0.45593999997E+02  0.45594000000E+02  0.51100000000E-03 0.  1.
    9900012    2    1    2    0    0  0.10181255343E+02  0.32968771525E+02 -0.21507399410E+02  0.50528854834E+02  0.29999984754E+02 0.  0.
         12    1    1    2    0    0 -0.10181255343E+02 -0.32968771525E+02  0.21507399410E+02  0.40659145166E+02  0.00000000000E+00 0. -1.
         11    1    3    3    0    0 -0.24916135600E+01  0.36697819554E+01 -0.15231522959E+02  0.15864259505E+02  0.51100000000E-03 0. -1.
        -11    1    3    3    0    0  0.12704088152E+02  0.16308858557E+02 -0.65053953442E+01  0.21672399315E+02  0.51100000000E-03 0.  1.
         12    1    3    3    0    0 -0.31219248870E-01  0.12990131012E+02  0.22951889323E+00  0.12992196015E+02  0.00000000000E+00 0. -1.
</event>
<event>
 7    1  0.5972636E-013  0.5052886E+02  0.7816164E-02  0.1300439E+00
        -11   -1    0    0    0    0  0.00000000000E+00  0.00000000000E+00  0.45593999997E+02  0.45594000000E+02  0.51100000000E-03 0. -1.
         11   -1    0    0    0    0 -0.00000000000E+00 -0.00000000000E+00 -0.45593999997E+02  0.45594000000E+02  0.51100000000E-03 0.  1.
    9900012    2    1    2    0    0 -0.42871470642E+01 -0.37938494574E+02 -0.13980570880E+02  0.50528863725E+02  0.30000011778E+02 0.  0.
         12    1    1    2    0    0  0.42871470642E+01  0.37938494574E+02  0.13980570880E+02  0.40659136275E+02  0.00000000000E+00 0. -1.
         11    1    3    3    0    0 -0.16589005112E+01  0.44285559008E+01  0.18909548776E+01  0.50931099422E+01  0.51100000000E-03 0. -1.
        -11    1    3    3    0    0 -0.31844243254E+01 -0.27384743389E+02 -0.10785958379E+02  0.29604081259E+02  0.51100000000E-03 0.  1.
         12    1    3    3    0    0  0.55617777233E+00 -0.14982307086E+02 -0.50855673785E+01  0.15831672524E+02  0.00000000000E+00 0. -1.
</event>
<event>
 7    1  0.5972636E-013  0.5052887E+02  0.7816164E-02  0.1300439E+00
        -11   -1    0    0    0    0  0.00000000000E+00  0.00000000000E+00  0.45593999997E+02  0.45594000000E+02  0.51100000000E-03 0. -1.
         11   -1    0    0    0    0 -0.00000000000E+00 -0.00000000000E+00 -0.45593999997E+02  0.45594000000E+02  0.51100000000E-03 0.  1.
    9900012    2    1    2    0    0  0.32730163648E+02  0.21474455721E+02  0.10988584017E+02  0.50528870157E+02  0.30000031329E+02 0.  0.
         12    1    1    2    0    0 -0.32730163648E+02 -0.21474455721E+02 -0.10988584017E+02  0.40659129843E+02  0.00000000000E+00 0. -1.
         11    1    3    3    0    0  0.15952167209E+02  0.20825127554E+02  0.61029841538E+01  0.26933324936E+02  0.51100000000E-03 0. -1.
        -11    1    3    3    0    0  0.11215306340E+02 -0.13506028014E+01 -0.47796707117E+01  0.12265907084E+02  0.51100000000E-03 0.  1.
        -12    1    3    3    0    0  0.55626900990E+01  0.19999309684E+01  0.96652705751E+01  0.11329638137E+02  0.00000000000E+00 0.  1.
</event>
<event>
 7    1  0.5972636E-013  0.5052886E+02  0.7816164E-02  0.1300439E+00
        -11   -1    0    0    0    0  0.00000000000E+00  0.00000000000E+00  0.45593999997E+02  0.45594000000E+02  0.51100000000E-03 0. -1.
         11   -1    0    0    0    0 -0.00000000000E+00 -0.00000000000E+00 -0.45593999997E+02  0.45594000000E+02  0.51100000000E-03 0.  1.
    9900012    2    1    2    0    0 -0.73966715647E+01 -0.18753406648E+02 -0.35309551246E+02  0.50528863016E+02  0.30000009622E+02 0.  0.
         12    1    1    2    0    0  0.73966715647E+01  0.18753406648E+02  0.35309551246E+02  0.40659136984E+02  0.00000000000E+00 0. -1.
         11    1    3    3    0    0 -0.61655290849E+01 -0.15697675642E+02 -0.21854506609E+01  0.17006086096E+02  0.51100000000E-03 0. -1.
        -11    1    3    3    0    0 -0.24225451650E+01 -0.11739807972E+01 -0.22974748244E+02  0.23131926273E+02  0.51100000000E-03 0.  1.
         12    1    3    3    0    0  0.11914026852E+01 -0.18817502085E+01 -0.10149352341E+02  0.10390850646E+02  0.00000000000E+00 0. -1.
</event>
<event>
 7    1  0.5972636E-013  0.5052886E+02  0.7816164E-02  0.1300439E+00
        -11   -1    0    0    0    0  0.00000000000E+00  0.00000000000E+00  0.45593999997E+02  0.45594000000E+02  0.51100000000E-03 0.  1.
         11   -1    0    0    0    0 -0.00000000000E+00 -0.00000000000E+00 -0.45593999997E+02  0.45594000000E+02  0.51100000000E-03 0. -1.
    9900012    2    1    2    0    0  0.36629188181E+02 -0.15348103323E+02  0.87122985351E+01  0.50528857754E+02  0.29999993630E+02 0.  0.
         12    1    1    2    0    0 -0.36629188181E+02  0.15348103323E+02 -0.87122985351E+01  0.40659142246E+02  0.00000000000E+00 0. -1.
         11    1    3    3    0    0  0.34405689454E+02 -0.20910231914E+02  0.31155505535E+01  0.40381876145E+02  0.51100000000E-03 0. -1.
        -11    1    3    3    0    0  0.40092376845E+01  0.20030430500E+01  0.29975198344E+01  0.53917801967E+01  0.51100000000E-03 0.  1.
         12    1    3    3    0    0 -0.17857389575E+01  0.35590855410E+01  0.25992281472E+01  0.47552014125E+01  0.00000000000E+00 0. -1.
</event>
<event>
 7    1  0.5972636E-013  0.5052886E+02  0.7816164E-02  0.1300439E+00
        -11   -1    0    0    0    0  0.00000000000E+00  0.00000000000E+00  0.45593999997E+02  0.45594000000E+02  0.51100000000E-03 0. -1.
         11   -1    0    0    0    0 -0.00000000000E+00 -0.00000000000E+00 -0.45593999997E+02  0.45594000000E+02  0.51100000000E-03 0.  1.
    9900012    2    1    2    0    0  0.34255631325E+01 -0.78677885508E+01 -0.39743293361E+02  0.50528856543E+02  0.29999989948E+02 0.  0.
         12    1    1    2    0    0 -0.34255631325E+01  0.78677885508E+01  0.39743293361E+02  0.40659143457E+02  0.00000000000E+00 0. -1.
         11    1    3    3    0    0 -0.12337944493E+01  0.99774425318E+01 -0.15630683205E+02  0.18584667496E+02  0.51100000000E-03 0. -1.
        -11    1    3    3    0    0 -0.26513956154E+01 -0.92045262938E+01 -0.12213910491E+02  0.15522010590E+02  0.51100000000E-03 0.  1.
         12    1    3    3    0    0  0.73107531972E+01 -0.86407047887E+01 -0.11898699665E+02  0.16422178457E+02  0.00000000000E+00 0. -1.
</event>
<event>
 7    1  0.7076331E-013  0.5052886E+02  0.7816164E-02  0.1300439E+00
        -11   -1    0    0    0    0  0.00000000000E+00  0.00000000000E+00  0.45593999997E+02  0.45594000000E+02  0.51100000000E-03 0.  1.
         11   -1    0    0    0    0 -0.00000000000E+00 -0.00000000000E+00 -0.45593999997E+02  0.45594000000E+02  0.51100000000E-03 0. -1.
    9900012    2    1    2    0    0 -0.27020675075E+02 -0.27585370352E+02  0.12731701773E+02  0.50528858728E+02  0.29999996590E+02 0.  0.
         12    1    1    2    0    0  0.27020675075E+02  0.27585370352E+02 -0.12731701773E+02  0.40659141272E+02  0.00000000000E+00 0. -1.
         11    1    3    3    0    0 -0.31856594067E+01 -0.90018499175E+00 -0.33433469436E+01  0.47049684294E+01  0.51100000000E-03 0. -1.
        -11    1    3    3    0    0 -0.78207384162E+01 -0.25152191164E+02  0.66030951465E+01  0.27155064638E+02  0.51100000000E-03 0.  1.
        -12    1    3    3    0    0 -0.16014277252E+02 -0.15329941959E+01  0.94719535705E+01  0.18668825660E+02  0.00000000000E+00 0.  1.
</event>
<event>
 7    1  0.5972636E-013  0.5052887E+02  0.7816164E-02  0.1300439E+00
        -11   -1    0    0    0    0  0.00000000000E+00  0.00000000000E+00  0.45593999997E+02  0.45594000000E+02  0.51100000000E-03 0.  1.
         11   -1    0    0    0    0 -0.00000000000E+00 -0.00000000000E+00 -0.45593999997E+02  0.45594000000E+02  0.51100000000E-03 0. -1.
    9900012    2    1    2    0    0  0.19362457364E+02  0.28268862635E+02  0.21889064797E+02  0.50528874240E+02  0.30000043741E+02 0.  0.
         12    1    1    2    0    0 -0.19362457364E+02 -0.28268862635E+02 -0.21889064797E+02  0.40659125760E+02  0.00000000000E+00 0. -1.
         11    1    3    3    0    0  0.10821203232E+02  0.15797528484E+02  0.57719889115E+01  0.19999405037E+02  0.51100000000E-03 0. -1.
        -11    1    3    3    0    0 -0.32555107041E+01  0.71335037140E+01  0.15729317789E+02  0.17575456283E+02  0.51100000000E-03 0.  1.
        -12    1    3    3    0    0  0.11796764837E+02  0.53378304370E+01  0.38775809619E+00  0.12954012920E+02  0.00000000000E+00 0.  1.
</event>
<event>
 7    1  0.5972636E-013  0.5052885E+02  0.7816164E-02  0.1300439E+00
        -11   -1    0    0    0    0  0.00000000000E+00  0.00000000000E+00  0.45593999997E+02  0.45594000000E+02  0.51100000000E-03 0. -1.
         11   -1    0    0    0    0 -0.00000000000E+00 -0.00000000000E+00 -0.45593999997E+02  0.45594000000E+02  0.51100000000E-03 0.  1.
    9900012    2    1    2    0    0  0.33147315704E+02  0.37093757613E+01 -0.23252143700E+02  0.50528853506E+02  0.29999980718E+02 0.  0.
         12    1    1    2    0    0 -0.33147315704E+02 -0.37093757613E+01  0.23252143700E+02  0.40659146494E+02  0.00000000000E+00 0. -1.
         11    1    3    3    0    0  0.34344053716E+01  0.74381921366E+01 -0.15085992846E+02  0.17167091277E+02  0.51100000000E-03 0. -1.
        -11    1    3    3    0    0  0.18475733167E+02 -0.24780982483E-01 -0.10573590776E+02  0.21287417699E+02  0.51100000000E-03 0.  1.
         12    1    3    3    0    0  0.11237177166E+02 -0.37040353928E+01  0.24074399216E+01  0.12074344530E+02  0.00000000000E+00 0. -1.
</event>
<event>
 7    1  0.5972636E-013  0.5052886E+02  0.7816164E-02  0.1300439E+00
        -11   -1    0    0    0    0  0.00000000000E+00  0.00000000000E+00  0.45593999997E+02  0.45594000000E+02  0.51100000000E-03 0. -1.
         11   -1    0    0    0    0 -0.00000000000E+00 -0.00000000000E+00 -0.45593999997E+02  0.45594000000E+02  0.51100000000E-03 0.  1.
    9900012    2    1    2    0    0 -0.21232662635E+02  0.30931811338E+02 -0.15670437519E+02  0.50528861700E+02  0.30000005624E+02 0.  0.
         12    1    1    2    0    0  0.21232662635E+02 -0.30931811338E+02  0.15670437519E+02  0.40659138300E+02  0.00000000000E+00 0. -1.
         11    1    3    3    0    0 -0.19362398229E+02  0.88873256890E+01 -0.30606261549E+01  0.21523346761E+02  0.51100000000E-03 0. -1.
        -11    1    3    3    0    0  0.56965772866E+01  0.85559059216E+01 -0.74746107951E+01  0.12709222074E+02  0.51100000000E-03 0.  1.
        -12    1    3    3    0    0 -0.75668416935E+01  0.13488579727E+02 -0.51352005695E+01  0.16296292866E+02  0.00000000000E+00 0.  1.
</event>
<event>
 7    1  0.5972636E-013  0.5052887E+02  0.7816164E-02  0.1300439E+00
        -11   -1    0    0    0    0  0.00000000000E+00  0.00000000000E+00  0.45593999997E+02  0.45594000000E+02  0.51100000000E-03 0.  1.
         11   -1    0    0    0    0 -0.00000000000E+00 -0.00000000000E+00 -0.45593999997E+02  0.45594000000E+02  0.51100000000E-03 0. -1.
    9900012    2    1    2    0    0 -0.31558943460E+02  0.23918090120E+02  0.92262106228E+01  0.50528869294E+02  0.30000028707E+02 0.  0.
         12    1    1    2    0    0  0.31558943460E+02 -0.23918090120E+02 -0.92262106228E+01  0.40659130706E+02  0.00000000000E+00 0. -1.
         11    1    3    3    0    0  0.33349763534E+01 -0.24231948992E+01  0.23196048519E+01  0.47301699470E+01  0.51100000000E-03 0. -1.
        -11    1    3    3    0    0 -0.15072799557E+02  0.72342754323E+01  0.73521430235E+01  0.18264118780E+02  0.51100000000E-03 0.  1.
         12    1    3    3    0    0 -0.19821120256E+02  0.19107009587E+02 -0.44553725272E+00  0.27534580567E+02  0.00000000000E+00 0. -1.
</event>
<event>
 7    1  0.5972636E-013  0.5052887E+02  0.7816164E-02  0.1300439E+00
        -11   -1    0    0    0    0  0.00000000000E+00  0.00000000000E+00  0.45593999997E+02  0.45594000000E+02  0.51100000000E-03 0. -1.
         11   -1    0    0    0    0 -0.00000000000E+00 -0.00000000000E+00 -0.45593999997E+02  0.45594000000E+02  0.51100000000E-03 0.  1.
    9900012    2    1    2    0    0  0.25335350982E+02  0.23182901780E+02 -0.21767809230E+02  0.50528874789E+02  0.30000045407E+02 0.  0.
         12    1    1    2    0    0 -0.25335350982E+02 -0.23182901780E+02  0.21767809230E+02  0.40659125211E+02  0.00000000000E+00 0. -1.
         11    1    3    3    0    0 -0.44280057973E+00  0.55992896531E+01 -0.47603640755E+01  0.73626885963E+01  0.51100000000E-03 0. -1.
        -11    1    3    3    0    0  0.27051348550E+02  0.61381643782E+01 -0.14800644058E+02  0.31440604083E+02  0.51100000000E-03 0.  1.
        -12    1    3    3    0    0 -0.12731969882E+01  0.11445447748E+02 -0.22068010960E+01  0.11725582110E+02  0.00000000000E+00 0.  1.
</event>
<event>
 7    1  0.5972636E-013  0.5052886E+02  0.7816164E-02  0.1300439E+00
        -11   -1    0    0    0    0  0.00000000000E+00  0.00000000000E+00  0.45593999997E+02  0.45594000000E+02  0.51100000000E-03 0.  1.
         11   -1    0    0    0    0 -0.00000000000E+00 -0.00000000000E+00 -0.45593999997E+02  0.45594000000E+02  0.51100000000E-03 0. -1.
    9900012    2    1    2    0    0  0.34637663578E+02 -0.21169586129E+02 -0.22905382296E+01  0.50528859817E+02  0.29999999901E+02 0.  0.
         12    1    1    2    0    0 -0.34637663578E+02  0.21169586129E+02  0.22905382296E+01  0.40659140183E+02  0.00000000000E+00 0. -1.
         11    1    3    3    0    0  0.90101648998E+01 -0.80032848782E+00  0.31209992433E+01  0.95689201976E+01  0.51100000000E-03 0. -1.
        -11    1    3    3    0    0  0.48692956017E+01 -0.19034553199E+02 -0.44007917614E+01  0.20134329478E+02  0.51100000000E-03 0.  1.
        -12    1    3    3    0    0  0.20758203076E+02 -0.13347044429E+01 -0.10107457115E+01  0.20825610142E+02  0.00000000000E+00 0.  1.
</event>
<event>
 7    1  0.5972636E-013  0.5052886E+02  0.7816164E-02  0.1300439E+00
        -11   -1    0    0    0    0  0.00000000000E+00  0.00000000000E+00  0.45593999997E+02  0.45594000000E+02  0.51100000000E-03 0. -1.
         11   -1    0    0    0    0 -0.00000000000E+00 -0.00000000000E+00 -0.45593999997E+02  0.45594000000E+02  0.51100000000E-03 0.  1.
    9900012    2    1    2    0    0 -0.12153674298E+02  0.87485790750E+01 -0.37801005373E+02  0.50528862749E+02  0.30000008813E+02 0.  0.
         12    1    1    2    0    0  0.12153674298E+02 -0.87485790750E+01  0.37801005373E+02  0.40659137251E+02  0.00000000000E+00 0. -1.
         11    1    3    3    0    0  0.32626310899E+00  0.42061147268E+01  0.15501019467E+01  0.44945149925E+01  0.51100000000E-03 0. -1.
        -11    1    3    3    0    0 -0.17788367722E+02  0.21400146630E+01 -0.31756268065E+02  0.36461846506E+02  0.51100000000E-03 0.  1.
        -12    1    3    3    0    0  0.53084303145E+01  0.24024496852E+01 -0.75948392548E+01  0.95725012510E+01  0.00000000000E+00 0.  1.
</event>
<event>
 7    1  0.5972636E-013  0.5052888E+02  0.7816164E-02  0.1300439E+00
        -11   -1    0    0    0    0  0.00000000000E+00  0.00000000000E+00  0.45593999997E+02  0.45594000000E+02  0.51100000000E-03 0.  1.
         11   -1    0    0    0    0 -0.00000000000E+00 -0.00000000000E+00 -0.45593999997E+02  0.45594000000E+02  0.51100000000E-03 0. -1.
    9900012    2    1    2    0    0 -0.85644373037E+01  0.54978703413E+01  0.39364809119E+02  0.50528876035E+02  0.30000049197E+02 0.  0.
         12    1    1    2    0    0  0.85644373037E+01 -0.54978703413E+01 -0.39364809119E+02  0.40659123965E+02  0.00000000000E+00 0. -1.
         11    1    3    3    0    0 -0.90168159301E-01 -0.36022122544E+01 -0.30414662853E+01  0.47153558560E+01  0.51100000000E-03 0. -1.
        -11    1    3    3    0    0 -0.10993446482E+02  0.66099914877E+01  0.25552885274E+02  0.28591918423E+02  0.51100000000E-03 0.  1.
         12    1    3    3    0    0  0.25191773373E+01  0.24900911079E+01  0.16853390130E+02  0.17221601756E+02  0.00000000000E+00 0. -1.
</event>
<event>
 7    1  0.5972636E-013  0.5052882E+02  0.7816164E-02  0.1300439E+00
        -11   -1    0    0    0    0  0.00000000000E+00  0.00000000000E+00  0.45593999997E+02  0.45594000000E+02  0.51100000000E-03 0.  1.
         11   -1    0    0    0    0 -0.00000000000E+00 -0.00000000000E+00 -0.45593999997E+02  0.45594000000E+02  0.51100000000E-03 0. -1.
    9900012    2    1    2    0    0 -0.21933359250E+02 -0.29075677084E+02  0.18074884099E+02  0.50528822917E+02  0.29999887739E+02 0.  0.
         12    1    1    2    0    0  0.21933359250E+02  0.29075677084E+02 -0.18074884099E+02  0.40659177083E+02  0.00000000000E+00 0. -1.
         11    1    3    3    0    0 -0.15281188961E+02 -0.11232343790E+02  0.19111207330E+02  0.26924311114E+02  0.51100000000E-03 0. -1.
        -11    1    3    3    0    0 -0.55712413938E+01 -0.18427521978E+02  0.29112205805E+01  0.19470169553E+02  0.51100000000E-03 0.  1.
         12    1    3    3    0    0 -0.10809288952E+01  0.58418868383E+00 -0.39475438121E+01  0.41343422504E+01  0.00000000000E+00 0. -1.
</event>
<event>
 7    1  0.5972636E-013  0.5052890E+02  0.7816164E-02  0.1300439E+00
        -11   -1    0    0    0    0  0.00000000000E+00  0.00000000000E+00  0.45593999997E+02  0.45594000000E+02  0.51100000000E-03 0.  1.
         11   -1    0    0    0    0 -0.00000000000E+00 -0.00000000000E+00 -0.45593999997E+02  0.45594000000E+02  0.51100000000E-03 0. -1.
    9900012    2    1    2    0    0 -0.28121117513E+02  0.11008026963E+01  0.29345418704E+02  0.50528897505E+02  0.30000114456E+02 0.  0.
         12    1    1    2    0    0  0.28121117513E+02 -0.11008026963E+01 -0.29345418704E+02  0.40659102495E+02  0.00000000000E+00 0. -1.
         11    1    3    3    0    0 -0.19788931271E+02  0.11981127687E+02  0.19892033942E+02  0.30509707243E+02  0.51100000000E-03 0. -1.
        -11    1    3    3    0    0  0.22690297259E+00 -0.88436673098E+01  0.48876091762E+01  0.10106960976E+02  0.51100000000E-03 0.  1.
        -12    1    3    3    0    0 -0.85590892154E+01 -0.20366576812E+01  0.45657755865E+01  0.99122292858E+01  0.00000000000E+00 0.  1.
</event>
<event>
 7    1  0.5972636E-013  0.5052887E+02  0.7816164E-02  0.1300439E+00
        -11   -1    0    0    0    0  0.00000000000E+00  0.00000000000E+00  0.45593999997E+02  0.45594000000E+02  0.51100000000E-03 0.  1.
         11   -1    0    0    0    0 -0.00000000000E+00 -0.00000000000E+00 -0.45593999997E+02  0.45594000000E+02  0.51100000000E-03 0. -1.
    9900012    2    1    2    0    0  0.37576410911E+02 -0.24586163348E+01  0.15334066900E+02  0.50528867460E+02  0.30000023130E+02 0.  0.
         12    1    1    2    0    0 -0.37576410911E+02  0.24586163348E+01 -0.15334066900E+02  0.40659132540E+02  0.00000000000E+00 0. -1.
         11    1    3    3    0    0  0.16649570471E+02 -0.12680165961E+01 -0.58870987797E+01  0.17705196844E+02  0.51100000000E-03 0. -1.
        -11    1    3    3    0    0  0.14293403896E+02 -0.57885666821E+01  0.18964383096E+02  0.24442927927E+02  0.51100000000E-03 0.  1.
         12    1    3    3    0    0  0.66334365433E+01  0.45979669433E+01  0.22567825837E+01  0.83807426888E+01  0.00000000000E+00 0. -1.
</event>
<event>
 7    1  0.5972636E-013  0.5052885E+02  0.7816164E-02  0.1300439E+00
        -11   -1    0    0    0    0  0.00000000000E+00  0.00000000000E+00  0.45593999997E+02  0.45594000000E+02  0.51100000000E-03 0.  1.
         11   -1    0    0    0    0 -0.00000000000E+00 -0.00000000000E+00 -0.45593999997E+02  0.45594000000E+02  0.51100000000E-03 0. -1.
    9900012    2    1    2    0    0 -0.11446295841E+01  0.38829501852E+02  0.12005244648E+02  0.50528852320E+02  0.29999977113E+02 0.  0.
         12    1    1    2    0    0  0.11446295841E+01 -0.38829501852E+02 -0.12005244648E+02  0.40659147680E+02  0.00000000000E+00 0. -1.
         11    1    3    3    0    0  0.38460781941E+01 -0.34698269545E+00  0.65248579592E+01  0.75819843125E+01  0.51100000000E-03 0. -1.
        -11    1    3    3    0    0  0.20596399329E+01  0.28482354708E+02 -0.10360521283E+01  0.28575514880E+02  0.51100000000E-03 0.  1.
        -12    1    3    3    0    0 -0.70503477111E+01  0.10694129839E+02  0.65164388176E+01  0.14371353128E+02  0.00000000000E+00 0.  1.
</event>
<event>
 7    1  0.5972636E-013  0.5052886E+02  0.7816164E-02  0.1300439E+00
        -11   -1    0    0    0    0  0.00000000000E+00  0.00000000000E+00  0.45593999997E+02  0.45594000000E+02  0.51100000000E-03 0.  1.
         11   -1    0    0    0    0 -0.00000000000E+00 -0.00000000000E+00 -0.45593999997E+02  0.45594000000E+02  0.51100000000E-03 0. -1.
    9900012    2    1    2    0    0 -0.37550456053E+02 -0.22816861205E+01 -0.15424746506E+02  0.50528860239E+02  0.30000001182E+02 0.  0.
         12    1    1    2    0    0  0.37550456053E+02  0.22816861205E+01  0.15424746506E+02  0.40659139761E+02  0.00000000000E+00 0. -1.
         11    1    3    3    0    0 -0.75903382101E+01 -0.10321284824E+01  0.43413269857E+01  0.88048647693E+01  0.51100000000E-03 0.  1.
        -11    1    3    3    0    0 -0.21041391392E+02 -0.42964163812E+01 -0.23273326638E+02  0.31667760870E+02  0.51100000000E-03 0. -1.
         12    1    3    3    0    0 -0.89187264505E+01  0.30468587431E+01  0.35072531461E+01  0.10056234600E+02  0.00000000000E+00 0. -1.
</event>
<event>
 7    1  0.5972636E-013  0.5052888E+02  0.7816164E-02  0.1300439E+00
        -11   -1    0    0    0    0  0.00000000000E+00  0.00000000000E+00  0.45593999997E+02  0.45594000000E+02  0.51100000000E-03 0.  1.
         11   -1    0    0    0    0 -0.00000000000E+00 -0.00000000000E+00 -0.45593999997E+02  0.45594000000E+02  0.51100000000E-03 0. -1.
    9900012    2    1    2    0    0 -0.40357518600E+02 -0.29962224379E+01 -0.39316107572E+01  0.50528877781E+02  0.30000054504E+02 0.  0.
         12    1    1    2    0    0  0.40357518600E+02  0.29962224379E+01  0.39316107572E+01  0.40659122219E+02  0.00000000000E+00 0. -1.
         11    1    3    3    0    0 -0.63052979570E+01  0.25600688964E+01 -0.76462372759E+01  0.10235999210E+02  0.51100000000E-03 0. -1.
        -11    1    3    3    0    0 -0.32643665807E+02 -0.85791732511E-01  0.74982665411E+01  0.33493884202E+02  0.51100000000E-03 0.  1.
        -12    1    3    3    0    0 -0.14085548359E+01 -0.54704996018E+01 -0.37836400224E+01  0.67989943696E+01  0.00000000000E+00 0.  1.
</event>
<event>
 7    1  0.5972636E-013  0.5052887E+02  0.7816164E-02  0.1300439E+00
        -11   -1    0    0    0    0  0.00000000000E+00  0.00000000000E+00  0.45593999997E+02  0.45594000000E+02  0.51100000000E-03 0.  1.
         11   -1    0    0    0    0 -0.00000000000E+00 -0.00000000000E+00 -0.45593999997E+02  0.45594000000E+02  0.51100000000E-03 0. -1.
    9900012    2    1    2    0    0  0.84563999416E+01 -0.35633158103E+02  0.17661610302E+02  0.50528866526E+02  0.30000020293E+02 0.  0.
         12    1    1    2    0    0 -0.84563999416E+01  0.35633158103E+02 -0.17661610302E+02  0.40659133474E+02  0.00000000000E+00 0. -1.
         11    1    3    3    0    0  0.59818077727E+01 -0.30561625301E+02  0.18830344799E+02  0.36391988827E+02  0.51100000000E-03 0.  1.
        -11    1    3    3    0    0 -0.44672365421E+01 -0.34340673299E+00 -0.31875540995E+01  0.54986027230E+01  0.51100000000E-03 0. -1.
        -12    1    3    3    0    0  0.69418287110E+01 -0.47281260695E+01  0.20188196025E+01  0.86382749765E+01  0.00000000000E+00 0.  1.
</event>
<event>
 7    1  0.5972636E-013  0.5052886E+02  0.7816164E-02  0.1300439E+00
        -11   -1    0    0    0    0  0.00000000000E+00  0.00000000000E+00  0.45593999997E+02  0.45594000000E+02  0.51100000000E-03 0.  1.
         11   -1    0    0    0    0 -0.00000000000E+00 -0.00000000000E+00 -0.45593999997E+02  0.45594000000E+02  0.51100000000E-03 0. -1.
    9900012    2    1    2    0    0  0.13109221924E+02  0.17849967972E+02  0.34098279517E+02  0.50528859305E+02  0.29999998343E+02 0.  0.
         12    1    1    2    0    0 -0.13109221924E+02 -0.17849967972E+02 -0.34098279517E+02  0.40659140695E+02  0.00000000000E+00 0. -1.
         11    1    3    3    0    0  0.57074065068E+01  0.19881776407E+02  0.36780459539E+02  0.42197887699E+02  0.51100000000E-03 0.  1.
        -11    1    3    3    0    0  0.60575985921E+01 -0.10396143373E+01 -0.16376831193E+01  0.63606057050E+01  0.51100000000E-03 0. -1.
        -12    1    3    3    0    0  0.13442168255E+01 -0.99219409770E+00 -0.10444969028E+01  0.19703659004E+01  0.00000000000E+00 0.  1.
</event>
<event>
 7    1  0.5972636E-013  0.5052883E+02  0.7816164E-02  0.1300439E+00
        -11   -1    0    0    0    0  0.00000000000E+00  0.00000000000E+00  0.45593999997E+02  0.45594000000E+02  0.51100000000E-03 0. -1.
         11   -1    0    0    0    0 -0.00000000000E+00 -0.00000000000E+00 -0.45593999997E+02  0.45594000000E+02  0.51100000000E-03 0.  1.
    9900012    2    1    2    0    0  0.13333580684E+02  0.35551817464E+02 -0.14541397154E+02  0.50528827234E+02  0.29999900859E+02 0.  0.
         12    1    1    2    0    0 -0.13333580684E+02 -0.35551817464E+02  0.14541397154E+02  0.40659172766E+02  0.00000000000E+00 0. -1.
         11    1    3    3    0    0  0.66155161931E+01  0.24023276768E+02 -0.10442300660E+02  0.27017115399E+02  0.51100000000E-03 0. -1.
        -11    1    3    3    0    0 -0.21902270039E+01  0.60035402353E+00 -0.84553483799E+01  0.87550234591E+01  0.51100000000E-03 0.  1.
         12    1    3    3    0    0  0.89082914951E+01  0.10928186673E+02  0.43562518855E+01  0.14756688375E+02  0.00000000000E+00 0. -1.
</event>
<event>
 7    1  0.5972636E-013  0.5052886E+02  0.7816164E-02  0.1300439E+00
        -11   -1    0    0    0    0  0.00000000000E+00  0.00000000000E+00  0.45593999997E+02  0.45594000000E+02  0.51100000000E-03 0.  1.
         11   -1    0    0    0    0 -0.00000000000E+00 -0.00000000000E+00 -0.45593999997E+02  0.45594000000E+02  0.51100000000E-03 0. -1.
    9900012    2    1    2    0    0 -0.24160947474E+02 -0.22661177666E+02  0.23577214179E+02  0.50528863457E+02  0.30000010962E+02 0.  0.
         12    1    1    2    0    0  0.24160947474E+02  0.22661177666E+02 -0.23577214179E+02  0.40659136543E+02  0.00000000000E+00 0. -1.
         11    1    3    3    0    0 -0.17174496616E+02 -0.17880539283E+02  0.76914620828E+01  0.25958343713E+02  0.51100000000E-03 0. -1.
        -11    1    3    3    0    0 -0.10854488847E+02 -0.45136929051E+01  0.16877906876E+02  0.20568351722E+02  0.51100000000E-03 0.  1.
         12    1    3    3    0    0  0.38680379885E+01 -0.26694547740E+00 -0.99215478065E+00  0.40021680221E+01  0.00000000000E+00 0. -1.
</event>
<event>
 7    1  0.5972636E-013  0.5052886E+02  0.7816164E-02  0.1300439E+00
        -11   -1    0    0    0    0  0.00000000000E+00  0.00000000000E+00  0.45593999997E+02  0.45594000000E+02  0.51100000000E-03 0. -1.
         11   -1    0    0    0    0 -0.00000000000E+00 -0.00000000000E+00 -0.45593999997E+02  0.45594000000E+02  0.51100000000E-03 0.  1.
    9900012    2    1    2    0    0  0.33599870079E+02 -0.11173901829E+02 -0.19983955646E+02  0.50528857920E+02  0.29999994134E+02 0.  0.
         12    1    1    2    0    0 -0.33599870079E+02  0.11173901829E+02  0.19983955646E+02  0.40659142080E+02  0.00000000000E+00 0. -1.
         11    1    3    3    0    0  0.36203546320E+01 -0.92272259052E+01 -0.90928702191E+00  0.99536660942E+01  0.51100000000E-03 0. -1.
        -11    1    3    3    0    0  0.26459781021E+02 -0.58946578517E+01 -0.21649620361E+02  0.34692550568E+02  0.51100000000E-03 0.  1.
         12    1    3    3    0    0  0.35197344258E+01  0.39479819276E+01  0.25749517362E+01  0.58826412582E+01  0.00000000000E+00 0. -1.
</event>
<event>
 7    1  0.5972636E-013  0.5052886E+02  0.7816164E-02  0.1300439E+00
        -11   -1    0    0    0    0  0.00000000000E+00  0.00000000000E+00  0.45593999997E+02  0.45594000000E+02  0.51100000000E-03 0. -1.
         11   -1    0    0    0    0 -0.00000000000E+00 -0.00000000000E+00 -0.45593999997E+02  0.45594000000E+02  0.51100000000E-03 0.  1.
    9900012    2    1    2    0    0  0.24276131333E+02  0.24487378904E+02 -0.21545382771E+02  0.50528858385E+02  0.29999995548E+02 0.  0.
         12    1    1    2    0    0 -0.24276131333E+02 -0.24487378904E+02  0.21545382771E+02  0.40659141615E+02  0.00000000000E+00 0. -1.
         11    1    3    3    0    0 -0.34372165039E+01  0.13349343802E+02 -0.75154639633E+00  0.13805225803E+02  0.51100000000E-03 0. -1.
        -11    1    3    3    0    0  0.13452028846E+02  0.52916341976E+01 -0.70951718380E+01  0.16102792808E+02  0.51100000000E-03 0.  1.
         12    1    3    3    0    0  0.14261318991E+02  0.58464009051E+01 -0.13698664536E+02  0.20620839774E+02  0.00000000000E+00 0. -1.
</event>
<event>
 7    1  0.5972636E-013  0.5052885E+02  0.7816164E-02  0.1300439E+00
        -11   -1    0    0    0    0  0.00000000000E+00  0.00000000000E+00  0.45593999997E+02  0.45594000000E+02  0.51100000000E-03 0.  1.
         11   -1    0    0    0    0 -0.00000000000E+00 -0.00000000000E+00 -0.45593999997E+02  0.45594000000E+02  0.51100000000E-03 0. -1.
    9900012    2    1    2    0    0  0.12731583457E+02 -0.36253872608E+02 -0.13293970996E+02  0.50528853904E+02  0.29999981926E+02 0.  0.
         12    1    1    2    0    0 -0.12731583457E+02  0.36253872608E+02  0.13293970996E+02  0.40659146096E+02  0.00000000000E+00 0. -1.
         11    1    3    3    0    0  0.25516206778E+01 -0.29086705358E+02 -0.16907178260E+02  0.33740181886E+02  0.51100000000E-03 0. -1.
        -11    1    3    3    0    0  0.48585085321E+01 -0.92885286665E+01  0.35250562427E+01  0.11059289838E+02  0.51100000000E-03 0.  1.
         12    1    3    3    0    0  0.53214542473E+01  0.21213614165E+01  0.88151021486E-01  0.57293821803E+01  0.00000000000E+00 0. -1.
</event>
<event>
 7    1  0.6443513E-013  0.5052886E+02  0.7816164E-02  0.1300439E+00
        -11   -1    0    0    0    0  0.00000000000E+00  0.00000000000E+00  0.45593999997E+02  0.45594000000E+02  0.51100000000E-03 0.  1.
         11   -1    0    0    0    0 -0.00000000000E+00 -0.00000000000E+00 -0.45593999997E+02  0.45594000000E+02  0.51100000000E-03 0. -1.
    9900012    2    1    2    0    0 -0.32949666528E+02  0.13660244590E+02  0.19516223155E+02  0.50528858681E+02  0.29999996446E+02 0.  0.
         12    1    1    2    0    0  0.32949666528E+02 -0.13660244590E+02 -0.19516223155E+02  0.40659141319E+02  0.00000000000E+00 0. -1.
         11    1    3    3    0    0 -0.73169074957E+01 -0.26558757929E+01 -0.53385382520E+01  0.94387924258E+01  0.51100000000E-03 0. -1.
        -11    1    3    3    0    0 -0.23049273352E+02  0.10199574730E+02  0.15402311011E+02  0.29538644374E+02  0.51100000000E-03 0.  1.
        -12    1    3    3    0    0 -0.25834856805E+01  0.61165456521E+01  0.94524503962E+01  0.11551421881E+02  0.00000000000E+00 0.  1.
</event>
<event>
 7    1  0.5972636E-013  0.5052886E+02  0.7816164E-02  0.1300439E+00
        -11   -1    0    0    0    0  0.00000000000E+00  0.00000000000E+00  0.45593999997E+02  0.45594000000E+02  0.51100000000E-03 0. -1.
         11   -1    0    0    0    0 -0.00000000000E+00 -0.00000000000E+00 -0.45593999997E+02  0.45594000000E+02  0.51100000000E-03 0.  1.
    9900012    2    1    2    0    0 -0.24656395289E+02 -0.18860498697E+02 -0.26258515547E+02  0.50528857381E+02  0.29999992495E+02 0.  0.
         12    1    1    2    0    0  0.24656395289E+02  0.18860498697E+02  0.26258515547E+02  0.40659142619E+02  0.00000000000E+00 0. -1.
         11    1    3    3    0    0 -0.90355323936E+01 -0.54282948675E+01  0.50084727550E+01  0.11670134121E+02  0.51100000000E-03 0. -1.
        -11    1    3    3    0    0 -0.33777202986E+01 -0.88260756622E+01 -0.90969261289E+01  0.13117266151E+02  0.51100000000E-03 0.  1.
         12    1    3    3    0    0 -0.12243142597E+02 -0.46061281678E+01 -0.22170062173E+02  0.25741457109E+02  0.00000000000E+00 0. -1.
</event>
<event>
 7    1  0.5972636E-013  0.5052888E+02  0.7816164E-02  0.1300439E+00
        -11   -1    0    0    0    0  0.00000000000E+00  0.00000000000E+00  0.45593999997E+02  0.45594000000E+02  0.51100000000E-03 0.  1.
         11   -1    0    0    0    0 -0.00000000000E+00 -0.00000000000E+00 -0.45593999997E+02  0.45594000000E+02  0.51100000000E-03 0. -1.
    9900012    2    1    2    0    0  0.31769762236E+02  0.42023072137E+01  0.25023721478E+02  0.50528882756E+02  0.30000069625E+02 0.  0.
         12    1    1    2    0    0 -0.31769762236E+02 -0.42023072137E+01 -0.25023721478E+02  0.40659117244E+02  0.00000000000E+00 0. -1.
         11    1    3    3    0    0  0.28842968134E+02  0.74228876026E+01  0.30784573439E+02  0.42833468610E+02  0.51100000000E-03 0.  1.
        -11    1    3    3    0    0  0.32157422157E+01 -0.19004232090E+01 -0.39578500809E+01  0.54421672057E+01  0.51100000000E-03 0. -1.
        -12    1    3    3    0    0 -0.28894811333E+00 -0.13201571799E+01 -0.18030018803E+01  0.22532469399E+01  0.00000000000E+00 0.  1.
</event>
<event>
 7    1  0.5972636E-013  0.5052886E+02  0.7816164E-02  0.1300439E+00
        -11   -1    0    0    0    0  0.00000000000E+00  0.00000000000E+00  0.45593999997E+02  0.45594000000E+02  0.51100000000E-03 0.  1.
         11   -1    0    0    0    0 -0.00000000000E+00 -0.00000000000E+00 -0.45593999997E+02  0.45594000000E+02  0.51100000000E-03 0. -1.
    9900012    2    1    2    0    0  0.75121884227E+01  0.36858043794E+02 -0.15434293345E+02  0.50528858614E+02  0.29999996242E+02 0.  0.
         12    1    1    2    0    0 -0.75121884227E+01 -0.36858043794E+02  0.15434293345E+02  0.40659141386E+02  0.00000000000E+00 0. -1.
         11    1    3    3    0    0  0.47811813142E+01  0.57395560855E+01 -0.80312816417E+01  0.10968303601E+02  0.51100000000E-03 0. -1.
        -11    1    3    3    0    0  0.24969340723E+01  0.14040867664E+01  0.62376156297E+01  0.68639630254E+01  0.51100000000E-03 0.  1.
        -12    1    3    3    0    0  0.23407303619E+00  0.29714400942E+02 -0.13640627333E+02  0.32696591987E+02  0.00000000000E+00 0.  1.
</event>
<event>
 7    1  0.5972636E-013  0.5052886E+02  0.7816164E-02  0.1300439E+00
        -11   -1    0    0    0    0  0.00000000000E+00  0.00000000000E+00  0.45593999997E+02  0.45594000000E+02  0.51100000000E-03 0.  1.
         11   -1    0    0    0    0 -0.00000000000E+00 -0.00000000000E+00 -0.45593999997E+02  0.45594000000E+02  0.51100000000E-03 0. -1.
    9900012    2    1    2    0    0 -0.59226268494E+01  0.24569358997E+02  0.31850187796E+02  0.50528863598E+02  0.30000011392E+02 0.  0.
         12    1    1    2    0    0  0.59226268494E+01 -0.24569358997E+02 -0.31850187796E+02  0.40659136402E+02  0.00000000000E+00 0. -1.
         11    1    3    3    0    0 -0.15238305851E+02  0.88958326277E+01  0.93348983964E+01  0.19962017225E+02  0.51100000000E-03 0. -1.
        -11    1    3    3    0    0  0.55388258777E+01  0.23726754374E+01  0.32288810859E+01  0.68362163630E+01  0.51100000000E-03 0.  1.
         12    1    3    3    0    0  0.37768531241E+01  0.13300850932E+02  0.19286408314E+02  0.23730630010E+02  0.00000000000E+00 0. -1.
</event>
<event>
 7    1  0.5972636E-013  0.5052886E+02  0.7816164E-02  0.1300439E+00
        -11   -1    0    0    0    0  0.00000000000E+00  0.00000000000E+00  0.45593999997E+02  0.45594000000E+02  0.51100000000E-03 0.  1.
         11   -1    0    0    0    0 -0.00000000000E+00 -0.00000000000E+00 -0.45593999997E+02  0.45594000000E+02  0.51100000000E-03 0. -1.
    9900012    2    1    2    0    0  0.60818218896E+01 -0.39301953870E+02  0.84577268690E+01  0.50528864749E+02  0.30000014892E+02 0.  0.
         12    1    1    2    0    0 -0.60818218896E+01  0.39301953870E+02 -0.84577268690E+01  0.40659135251E+02  0.00000000000E+00 0. -1.
         11    1    3    3    0    0 -0.41852880945E+01 -0.27408440969E+02  0.66524047192E+01  0.28513045463E+02  0.51100000000E-03 0. -1.
        -11    1    3    3    0    0  0.56853743318E+01  0.29387463889E+01  0.12329665406E+00  0.64011650468E+01  0.51100000000E-03 0.  1.
        -12    1    3    3    0    0  0.45817356523E+01 -0.14832259291E+02  0.16820254958E+01  0.15614654239E+02  0.00000000000E+00 0.  1.
</event>
<event>
 7    1  0.5972636E-013  0.5052886E+02  0.7816164E-02  0.1300439E+00
        -11   -1    0    0    0    0  0.00000000000E+00  0.00000000000E+00  0.45593999997E+02  0.45594000000E+02  0.51100000000E-03 0.  1.
         11   -1    0    0    0    0 -0.00000000000E+00 -0.00000000000E+00 -0.45593999997E+02  0.45594000000E+02  0.51100000000E-03 0. -1.
    9900012    2    1    2    0    0  0.12900589900E+02 -0.37322057302E+02  0.96852810336E+01  0.50528857735E+02  0.29999993571E+02 0.  0.
         12    1    1    2    0    0 -0.12900589900E+02  0.37322057302E+02 -0.96852810336E+01  0.40659142265E+02  0.00000000000E+00 0. -1.
         11    1    3    3    0    0  0.11437971156E+00  0.26088041880E+01  0.53569850060E+01  0.59595495321E+01  0.51100000000E-03 0. -1.
        -11    1    3    3    0    0  0.95757961596E+01 -0.35037356930E+02  0.85963599670E+01  0.37325723806E+02  0.51100000000E-03 0.  1.
         12    1    3    3    0    0  0.32104140289E+01 -0.48935045601E+01 -0.42680639394E+01  0.72435843964E+01  0.00000000000E+00 0. -1.
</event>
<event>
 7    1  0.5972636E-013  0.5052886E+02  0.7816164E-02  0.1300439E+00
        -11   -1    0    0    0    0  0.00000000000E+00  0.00000000000E+00  0.45593999997E+02  0.45594000000E+02  0.51100000000E-03 0.  1.
         11   -1    0    0    0    0 -0.00000000000E+00 -0.00000000000E+00 -0.45593999997E+02  0.45594000000E+02  0.51100000000E-03 0. -1.
    9900012    2    1    2    0    0  0.16990087024E+02  0.32807214018E+02  0.16976136327E+02  0.50528861381E+02  0.30000004652E+02 0.  0.
         12    1    1    2    0    0 -0.16990087024E+02 -0.32807214018E+02 -0.16976136327E+02  0.40659138619E+02  0.00000000000E+00 0. -1.
         11    1    3    3    0    0 -0.22463762530E+01  0.96833551695E+01  0.38130693063E+01  0.10646739943E+02  0.51100000000E-03 0. -1.
        -11    1    3    3    0    0  0.18852176841E+02  0.68150899031E+01  0.20663184520E+01  0.20152411623E+02  0.51100000000E-03 0.  1.
        -12    1    3    3    0    0  0.38428643568E+00  0.16308768945E+02  0.11096748569E+02  0.19729709815E+02  0.00000000000E+00 0.  1.
</event>
<event>
 7    1  0.5972636E-013  0.5052886E+02  0.7816164E-02  0.1300439E+00
        -11   -1    0    0    0    0  0.00000000000E+00  0.00000000000E+00  0.45593999997E+02  0.45594000000E+02  0.51100000000E-03 0.  1.
         11   -1    0    0    0    0 -0.00000000000E+00 -0.00000000000E+00 -0.45593999997E+02  0.45594000000E+02  0.51100000000E-03 0. -1.
    9900012    2    1    2    0    0 -0.77934785942E+01  0.99017850672E+01  0.38657238556E+02  0.50528858975E+02  0.29999997341E+02 0.  0.
         12    1    1    2    0    0  0.77934785942E+01 -0.99017850672E+01 -0.38657238556E+02  0.40659141025E+02  0.00000000000E+00 0. -1.
         11    1    3    3    0    0 -0.62369617964E+00  0.96732538832E+01  0.47671707354E+01  0.10802164352E+02  0.51100000000E-03 0. -1.
        -11    1    3    3    0    0 -0.32180401578E+01  0.10149490417E+01  0.35297729801E+02  0.35458646807E+02  0.51100000000E-03 0.  1.
        -12    1    3    3    0    0 -0.39517422568E+01 -0.78641785762E+00 -0.14076619802E+01  0.42680478162E+01  0.00000000000E+00 0.  1.
</event>
<event>
 7    1  0.5972636E-013  0.5052886E+02  0.7816164E-02  0.1300439E+00
        -11   -1    0    0    0    0  0.00000000000E+00  0.00000000000E+00  0.45593999997E+02  0.45594000000E+02  0.51100000000E-03 0.  1.
         11   -1    0    0    0    0 -0.00000000000E+00 -0.00000000000E+00 -0.45593999997E+02  0.45594000000E+02  0.51100000000E-03 0. -1.
    9900012    2    1    2    0    0 -0.29916141740E+02 -0.25423613242E+02  0.10574973854E+02  0.50528859344E+02  0.29999998461E+02 0.  0.
         12    1    1    2    0    0  0.29916141740E+02  0.25423613242E+02 -0.10574973854E+02  0.40659140656E+02  0.00000000000E+00 0. -1.
         11    1    3    3    0    0 -0.15191300622E+02  0.10127245672E+01 -0.28898540106E+01  0.15496853942E+02  0.51100000000E-03 0. -1.
        -11    1    3    3    0    0 -0.11845498011E+01 -0.13166268906E+02  0.38162601397E+01  0.13759274576E+02  0.51100000000E-03 0.  1.
        -12    1    3    3    0    0 -0.13540291317E+02 -0.13270068902E+02  0.96485677246E+01  0.21272730825E+02  0.00000000000E+00 0.  1.
</event>
<event>
 7    1  0.5972636E-013  0.5052885E+02  0.7816164E-02  0.1300439E+00
        -11   -1    0    0    0    0  0.00000000000E+00  0.00000000000E+00  0.45593999997E+02  0.45594000000E+02  0.51100000000E-03 0.  1.
         11   -1    0    0    0    0 -0.00000000000E+00 -0.00000000000E+00 -0.45593999997E+02  0.45594000000E+02  0.51100000000E-03 0. -1.
    9900012    2    1    2    0    0  0.22556782231E+02 -0.56504521275E+01  0.33353112890E+02  0.50528853756E+02  0.29999981476E+02 0.  0.
         12    1    1    2    0    0 -0.22556782231E+02  0.56504521275E+01 -0.33353112890E+02  0.40659146244E+02  0.00000000000E+00 0. -1.
         11    1    3    3    0    0  0.26105046866E+01 -0.12824560573E+02  0.13611637106E+02  0.18882816357E+02  0.51100000000E-03 0.  1.
        -11    1    3    3    0    0  0.19237499833E+02  0.32533551150E+01  0.19605549888E+02  0.27659416226E+02  0.51100000000E-03 0. -1.
         12    1    3    3    0    0  0.70877771193E+00  0.39207533306E+01  0.13592589663E+00  0.39866211726E+01  0.00000000000E+00 0. -1.
</event>
<event>
 7    1  0.5972636E-013  0.5052889E+02  0.7816164E-02  0.1300439E+00
        -11   -1    0    0    0    0  0.00000000000E+00  0.00000000000E+00  0.45593999997E+02  0.45594000000E+02  0.51100000000E-03 0.  1.
         11   -1    0    0    0    0 -0.00000000000E+00 -0.00000000000E+00 -0.45593999997E+02  0.45594000000E+02  0.51100000000E-03 0. -1.
    9900012    2    1    2    0    0 -0.23040692827E+02  0.31814511188E+02 -0.10494123261E+02  0.50528889446E+02  0.30000089959E+02 0.  0.
         12    1    1    2    0    0  0.23040692827E+02 -0.31814511188E+02  0.10494123261E+02  0.40659110554E+02  0.00000000000E+00 0. -1.
         11    1    3    3    0    0 -0.59658536541E+01  0.12556843461E+02 -0.15316242199E+02  0.20684607874E+02  0.51100000000E-03 0. -1.
        -11    1    3    3    0    0 -0.44434195119E+01  0.84978911776E+01  0.85388500169E+01  0.12840174894E+02  0.51100000000E-03 0.  1.
        -12    1    3    3    0    0 -0.12631419660E+02  0.10759776549E+02 -0.37167310788E+01  0.17004106679E+02  0.00000000000E+00 0.  1.
</event>
<event>
 7    1  0.5972636E-013  0.5052885E+02  0.7816164E-02  0.1300439E+00
        -11   -1    0    0    0    0  0.00000000000E+00  0.00000000000E+00  0.45593999997E+02  0.45594000000E+02  0.51100000000E-03 0. -1.
         11   -1    0    0    0    0 -0.00000000000E+00 -0.00000000000E+00 -0.45593999997E+02  0.45594000000E+02  0.51100000000E-03 0.  1.
    9900012    2    1    2    0    0 -0.29379393937E+00  0.36458139725E+02 -0.17996783827E+02  0.50528849797E+02  0.29999969444E+02 0.  0.
         12    1    1    2    0    0  0.29379393937E+00 -0.36458139725E+02  0.17996783827E+02  0.40659150203E+02  0.00000000000E+00 0. -1.
         11    1    3    3    0    0 -0.36717915704E+00  0.42891915975E+01  0.59857956680E+01  0.73730411049E+01  0.51100000000E-03 0. -1.
        -11    1    3    3    0    0 -0.61039745454E+01  0.18448995863E+02 -0.19322819574E+02  0.27404293645E+02  0.51100000000E-03 0.  1.
         12    1    3    3    0    0  0.61773597630E+01  0.13719952264E+02 -0.46597599207E+01  0.15751515048E+02  0.00000000000E+00 0. -1.
</event>
<event>
 7    1  0.5972636E-013  0.5052885E+02  0.7816164E-02  0.1300439E+00
        -11   -1    0    0    0    0  0.00000000000E+00  0.00000000000E+00  0.45593999997E+02  0.45594000000E+02  0.51100000000E-03 0.  1.
         11   -1    0    0    0    0 -0.00000000000E+00 -0.00000000000E+00 -0.45593999997E+02  0.45594000000E+02  0.51100000000E-03 0. -1.
    9900012    2    1    2    0    0 -0.26107389023E+02  0.17876240206E+02  0.25534499468E+02  0.50528851108E+02  0.29999973429E+02 0.  0.
         12    1    1    2    0    0  0.26107389023E+02 -0.17876240206E+02 -0.25534499468E+02  0.40659148892E+02  0.00000000000E+00 0. -1.
         11    1    3    3    0    0 -0.29856606700E+02  0.11569581774E+02  0.24781809316E+02  0.40489631504E+02  0.51100000000E-03 0. -1.
        -11    1    3    3    0    0  0.13866558680E+01  0.72095931668E+01  0.12882804220E+01  0.74539060119E+01  0.51100000000E-03 0.  1.
         12    1    3    3    0    0  0.23625618088E+01 -0.90293473532E+00 -0.53559026971E+00  0.25853135929E+01  0.00000000000E+00 0. -1.
</event>
<event>
 7    1  0.5972636E-013  0.5052885E+02  0.7816164E-02  0.1300439E+00
        -11   -1    0    0    0    0  0.00000000000E+00  0.00000000000E+00  0.45593999997E+02  0.45594000000E+02  0.51100000000E-03 0.  1.
         11   -1    0    0    0    0 -0.00000000000E+00 -0.00000000000E+00 -0.45593999997E+02  0.45594000000E+02  0.51100000000E-03 0. -1.
    9900012    2    1    2    0    0 -0.40596577627E+02 -0.38948780094E+00 -0.22209237367E+01  0.50528851976E+02  0.29999976066E+02 0.  0.
         12    1    1    2    0    0  0.40596577627E+02  0.38948780094E+00  0.22209237367E+01  0.40659148024E+02  0.00000000000E+00 0. -1.
         11    1    3    3    0    0 -0.67739954259E+01 -0.44250700107E+01  0.64368336313E+01  0.10339298143E+02  0.51100000000E-03 0. -1.
        -11    1    3    3    0    0 -0.27440620669E+02  0.10960627346E+02 -0.44768045816E+01  0.29885862779E+02  0.51100000000E-03 0.  1.
         12    1    3    3    0    0 -0.63819615328E+01 -0.69250451360E+01 -0.41809527864E+01  0.10303691054E+02  0.00000000000E+00 0. -1.
</event>
<event>
 7    1  0.5972636E-013  0.5052886E+02  0.7816164E-02  0.1300439E+00
        -11   -1    0    0    0    0  0.00000000000E+00  0.00000000000E+00  0.45593999997E+02  0.45594000000E+02  0.51100000000E-03 0.  1.
         11   -1    0    0    0    0 -0.00000000000E+00 -0.00000000000E+00 -0.45593999997E+02  0.45594000000E+02  0.51100000000E-03 0. -1.
    9900012    2    1    2    0    0 -0.38233905550E+02 -0.24393976346E+01  0.13615560806E+02  0.50528859693E+02  0.29999999523E+02 0.  0.
         12    1    1    2    0    0  0.38233905550E+02  0.24393976346E+01 -0.13615560806E+02  0.40659140307E+02  0.00000000000E+00 0. -1.
         11    1    3    3    0    0 -0.92526352935E+01  0.51377211828E+01  0.14997825509E+02  0.18355985648E+02  0.51100000000E-03 0. -1.
        -11    1    3    3    0    0 -0.27439127201E+02 -0.79872561636E+01  0.17772924905E+01  0.28633210288E+02  0.51100000000E-03 0.  1.
         12    1    3    3    0    0 -0.15421430562E+01  0.41013734626E+00 -0.31595571942E+01  0.35396637569E+01  0.00000000000E+00 0. -1.
</event>
<event>
 7    1  0.5972636E-013  0.5052885E+02  0.7816164E-02  0.1300439E+00
        -11   -1    0    0    0    0  0.00000000000E+00  0.00000000000E+00  0.45593999997E+02  0.45594000000E+02  0.51100000000E-03 0.  1.
         11   -1    0    0    0    0 -0.00000000000E+00 -0.00000000000E+00 -0.45593999997E+02  0.45594000000E+02  0.51100000000E-03 0. -1.
    9900012    2    1    2    0    0  0.18276547195E+02  0.11163450759E+02  0.34561702250E+02  0.50528854993E+02  0.29999985238E+02 0.  0.
         12    1    1    2    0    0 -0.18276547195E+02 -0.11163450759E+02 -0.34561702250E+02  0.40659145007E+02  0.00000000000E+00 0. -1.
         11    1    3    3    0    0  0.58210685654E+01  0.77717637256E+01 -0.31984876788E+01  0.10223280997E+02  0.51100000000E-03 0. -1.
        -11    1    3    3    0    0  0.69062441476E+01  0.45679411953E+01  0.25156839558E+02  0.26484502483E+02  0.51100000000E-03 0.  1.
         12    1    3    3    0    0  0.55492344822E+01 -0.11762541621E+01  0.12603350371E+02  0.13821071513E+02  0.00000000000E+00 0. -1.
</event>
<event>
 7    1  0.5972636E-013  0.5052886E+02  0.7816164E-02  0.1300439E+00
        -11   -1    0    0    0    0  0.00000000000E+00  0.00000000000E+00  0.45593999997E+02  0.45594000000E+02  0.51100000000E-03 0.  1.
         11   -1    0    0    0    0 -0.00000000000E+00 -0.00000000000E+00 -0.45593999997E+02  0.45594000000E+02  0.51100000000E-03 0. -1.
    9900012    2    1    2    0    0 -0.18670659678E+02  0.18695049066E+02  0.30904161352E+02  0.50528861037E+02  0.30000003607E+02 0.  0.
         12    1    1    2    0    0  0.18670659678E+02 -0.18695049066E+02 -0.30904161352E+02  0.40659138963E+02  0.00000000000E+00 0. -1.
         11    1    3    3    0    0 -0.50283564629E+01 -0.15749043770E+01 -0.33269141440E+01  0.62316170050E+01  0.51100000000E-03 0. -1.
        -11    1    3    3    0    0 -0.12904926584E+02  0.13682575139E+02  0.15319701310E+02  0.24257849061E+02  0.51100000000E-03 0.  1.
        -12    1    3    3    0    0 -0.73737663093E+00  0.65873783041E+01  0.18911374186E+02  0.20039394971E+02  0.00000000000E+00 0.  1.
</event>
<event>
 7    1  0.5972636E-013  0.5052885E+02  0.7816164E-02  0.1300439E+00
        -11   -1    0    0    0    0  0.00000000000E+00  0.00000000000E+00  0.45593999997E+02  0.45594000000E+02  0.51100000000E-03 0.  1.
         11   -1    0    0    0    0 -0.00000000000E+00 -0.00000000000E+00 -0.45593999997E+02  0.45594000000E+02  0.51100000000E-03 0. -1.
    9900012    2    1    2    0    0  0.27180998861E+02  0.24391451617E+02  0.17872229494E+02  0.50528853451E+02  0.29999980549E+02 0.  0.
         12    1    1    2    0    0 -0.27180998861E+02 -0.24391451617E+02 -0.17872229494E+02  0.40659146549E+02  0.00000000000E+00 0. -1.
         11    1    3    3    0    0  0.93531047831E+01  0.14337363837E+01  0.96613477726E+01  0.13523232237E+02  0.51100000000E-03 0. -1.
        -11    1    3    3    0    0  0.19081116706E+02  0.20506766313E+02 -0.34984737620E+00  0.28013191050E+02  0.51100000000E-03 0.  1.
        -12    1    3    3    0    0 -0.12532226287E+01  0.24509489202E+01  0.85607290972E+01  0.89924301633E+01  0.00000000000E+00 0.  1.
</event>
<event>
 7    1  0.5972636E-013  0.5052886E+02  0.7816164E-02  0.1300439E+00
        -11   -1    0    0    0    0  0.00000000000E+00  0.00000000000E+00  0.45593999997E+02  0.45594000000E+02  0.51100000000E-03 0. -1.
         11   -1    0    0    0    0 -0.00000000000E+00 -0.00000000000E+00 -0.45593999997E+02  0.45594000000E+02  0.51100000000E-03 0.  1.
    9900012    2    1    2    0    0 -0.12065721412E+02 -0.37307947725E+02 -0.10756454167E+02  0.50528857081E+02  0.29999991585E+02 0.  0.
         12    1    1    2    0    0  0.12065721412E+02  0.37307947725E+02  0.10756454167E+02  0.40659142919E+02  0.00000000000E+00 0. -1.
         11    1    3    3    0    0 -0.48052102581E-01 -0.88175263340E+01  0.13121386235E+01  0.89147511285E+01  0.51100000000E-03 0. -1.
        -11    1    3    3    0    0 -0.24204188405E+01  0.15060615075E+01 -0.96099940857E+01  0.10023903193E+02  0.51100000000E-03 0.  1.
        -12    1    3    3    0    0 -0.95972504693E+01 -0.29996482898E+02 -0.24585987044E+01  0.31590202760E+02  0.00000000000E+00 0.  1.
</event>
<event>
 7    1  0.5972636E-013  0.5052882E+02  0.7816164E-02  0.1300439E+00
        -11   -1    0    0    0    0  0.00000000000E+00  0.00000000000E+00  0.45593999997E+02  0.45594000000E+02  0.51100000000E-03 0. -1.
         11   -1    0    0    0    0 -0.00000000000E+00 -0.00000000000E+00 -0.45593999997E+02  0.45594000000E+02  0.51100000000E-03 0.  1.
    9900012    2    1    2    0    0  0.28300914366E+02  0.17302380461E+02 -0.23512863076E+02  0.50528820796E+02  0.29999881290E+02 0.  0.
         12    1    1    2    0    0 -0.28300914366E+02 -0.17302380461E+02  0.23512863076E+02  0.40659179204E+02  0.00000000000E+00 0. -1.
         11    1    3    3    0    0 -0.44084279985E+01  0.95002101785E+01 -0.39050398136E+01  0.11177547453E+02  0.51100000000E-03 0. -1.
        -11    1    3    3    0    0  0.96966286944E+01  0.35831909235E+01 -0.33724339786E+01  0.10873691941E+02  0.51100000000E-03 0.  1.
         12    1    3    3    0    0  0.23012713670E+02  0.42189793585E+01 -0.16235389284E+02  0.28477581402E+02  0.00000000000E+00 0. -1.
</event>
<event>
 7    1  0.5972636E-013  0.5052885E+02  0.7816164E-02  0.1300439E+00
        -11   -1    0    0    0    0  0.00000000000E+00  0.00000000000E+00  0.45593999997E+02  0.45594000000E+02  0.51100000000E-03 0.  1.
         11   -1    0    0    0    0 -0.00000000000E+00 -0.00000000000E+00 -0.45593999997E+02  0.45594000000E+02  0.51100000000E-03 0. -1.
    9900012    2    1    2    0    0  0.25571612658E+02 -0.18216072578E+02  0.25834739482E+02  0.50528850498E+02  0.29999971573E+02 0.  0.
         12    1    1    2    0    0 -0.25571612658E+02  0.18216072578E+02 -0.25834739482E+02  0.40659149502E+02  0.00000000000E+00 0. -1.
         11    1    3    3    0    0  0.26604135203E+01 -0.54783966505E+01  0.16527501137E+02  0.17613884411E+02  0.51100000000E-03 0. -1.
        -11    1    3    3    0    0  0.21092853492E+02 -0.16694493850E+02  0.95718162724E+01  0.28552307443E+02  0.51100000000E-03 0.  1.
        -12    1    3    3    0    0  0.18183456463E+01  0.39568179220E+01 -0.26457792680E+00  0.43626586431E+01  0.00000000000E+00 0.  1.
</event>
<event>
 7    1  0.5972636E-013  0.5052886E+02  0.7816164E-02  0.1300439E+00
        -11   -1    0    0    0    0  0.00000000000E+00  0.00000000000E+00  0.45593999997E+02  0.45594000000E+02  0.51100000000E-03 0.  1.
         11   -1    0    0    0    0 -0.00000000000E+00 -0.00000000000E+00 -0.45593999997E+02  0.45594000000E+02  0.51100000000E-03 0. -1.
    9900012    2    1    2    0    0  0.15162120918E+02  0.18522532573E+02  0.32866265325E+02  0.50528861788E+02  0.30000005892E+02 0.  0.
         12    1    1    2    0    0 -0.15162120918E+02 -0.18522532573E+02 -0.32866265325E+02  0.40659138212E+02  0.00000000000E+00 0. -1.
         11    1    3    3    0    0  0.18373714490E+02  0.23837097555E+02  0.26429852810E+02  0.40054184847E+02  0.51100000000E-03 0. -1.
        -11    1    3    3    0    0 -0.27431992434E+01 -0.49841248836E+01  0.74116783924E+01  0.93434265555E+01  0.51100000000E-03 0.  1.
         12    1    3    3    0    0 -0.46839432826E+00 -0.33044009755E+00 -0.97526587665E+00  0.11312503856E+01  0.00000000000E+00 0. -1.
</event>
<event>
 7    1  0.5972636E-013  0.5052891E+02  0.7816164E-02  0.1300439E+00
        -11   -1    0    0    0    0  0.00000000000E+00  0.00000000000E+00  0.45593999997E+02  0.45594000000E+02  0.51100000000E-03 0.  1.
         11   -1    0    0    0    0 -0.00000000000E+00 -0.00000000000E+00 -0.45593999997E+02  0.45594000000E+02  0.51100000000E-03 0. -1.
    9900012    2    1    2    0    0  0.19365712558E+02  0.24688764842E+02  0.25857223224E+02  0.50528905997E+02  0.30000140270E+02 0.  0.
         12    1    1    2    0    0 -0.19365712558E+02 -0.24688764842E+02 -0.25857223224E+02  0.40659094003E+02  0.00000000000E+00 0. -1.
         11    1    3    3    0    0  0.10665158846E+02  0.67305280496E-01 -0.61036360012E+00  0.10682822061E+02  0.51100000000E-03 0. -1.
        -11    1    3    3    0    0 -0.29126782958E+01  0.13081577549E+02  0.12472695716E+02  0.18307908256E+02  0.51100000000E-03 0.  1.
         12    1    3    3    0    0  0.11613232008E+02  0.11539882012E+02  0.13994891108E+02  0.21538175681E+02  0.00000000000E+00 0. -1.
</event>
<event>
 7    1  0.5972636E-013  0.5052886E+02  0.7816164E-02  0.1300439E+00
        -11   -1    0    0    0    0  0.00000000000E+00  0.00000000000E+00  0.45593999997E+02  0.45594000000E+02  0.51100000000E-03 0. -1.
         11   -1    0    0    0    0 -0.00000000000E+00 -0.00000000000E+00 -0.45593999997E+02  0.45594000000E+02  0.51100000000E-03 0.  1.
    9900012    2    1    2    0    0 -0.38709768703E+02  0.16424669052E+01 -0.12329698231E+02  0.50528863892E+02  0.30000012287E+02 0.  0.
         12    1    1    2    0    0  0.38709768703E+02 -0.16424669052E+01  0.12329698231E+02  0.40659136108E+02  0.00000000000E+00 0. -1.
         11    1    3    3    0    0 -0.89957292592E+01  0.71344371921E+01 -0.31197479227E+01  0.11897737865E+02  0.51100000000E-03 0. -1.
        -11    1    3    3    0    0 -0.18705574964E+02 -0.71826296350E+01  0.49269118720E+01  0.20634029274E+02  0.51100000000E-03 0.  1.
        -12    1    3    3    0    0 -0.11008464479E+02  0.16906593481E+01 -0.14136862181E+02  0.17997096753E+02  0.00000000000E+00 0.  1.
</event>
<event>
 7    1  0.5972636E-013  0.5052886E+02  0.7816164E-02  0.1300439E+00
        -11   -1    0    0    0    0  0.00000000000E+00  0.00000000000E+00  0.45593999997E+02  0.45594000000E+02  0.51100000000E-03 0.  1.
         11   -1    0    0    0    0 -0.00000000000E+00 -0.00000000000E+00 -0.45593999997E+02  0.45594000000E+02  0.51100000000E-03 0. -1.
    9900012    2    1    2    0    0  0.37492208469E+02  0.14760543903E+02 -0.54429687082E+01  0.50528864981E+02  0.30000015595E+02 0.  0.
         12    1    1    2    0    0 -0.37492208469E+02 -0.14760543903E+02  0.54429687082E+01  0.40659135019E+02  0.00000000000E+00 0. -1.
         11    1    3    3    0    0  0.15652823670E+01  0.10158222026E+02  0.16905803184E+01  0.10416220317E+02  0.51100000000E-03 0. -1.
        -11    1    3    3    0    0  0.12946168855E+02 -0.53640402915E+01 -0.53515640851E+01  0.15000515147E+02  0.51100000000E-03 0.  1.
        -12    1    3    3    0    0  0.22980757247E+02  0.99663621681E+01 -0.17819849416E+01  0.25112129516E+02  0.00000000000E+00 0.  1.
</event>
<event>
 7    1  0.5972636E-013  0.5052886E+02  0.7816164E-02  0.1300439E+00
        -11   -1    0    0    0    0  0.00000000000E+00  0.00000000000E+00  0.45593999997E+02  0.45594000000E+02  0.51100000000E-03 0.  1.
         11   -1    0    0    0    0 -0.00000000000E+00 -0.00000000000E+00 -0.45593999997E+02  0.45594000000E+02  0.51100000000E-03 0. -1.
    9900012    2    1    2    0    0 -0.82019017635E+01 -0.10639233822E+02  0.38375784508E+02  0.50528864182E+02  0.30000013168E+02 0.  0.
         12    1    1    2    0    0  0.82019017635E+01  0.10639233822E+02 -0.38375784508E+02  0.40659135818E+02  0.00000000000E+00 0. -1.
         11    1    3    3    0    0 -0.12261656521E+02 -0.11886374918E+02  0.64531826237E+01  0.18255894817E+02  0.51100000000E-03 0. -1.
        -11    1    3    3    0    0  0.25063518536E+01  0.15916719852E+01  0.16179557628E+02  0.16449720503E+02  0.51100000000E-03 0.  1.
         12    1    3    3    0    0  0.15534029036E+01 -0.34453088902E+00  0.15743044256E+02  0.15823248862E+02  0.00000000000E+00 0. -1.
</event>
<event>
 7    1  0.5972636E-013  0.5052886E+02  0.7816164E-02  0.1300439E+00
        -11   -1    0    0    0    0  0.00000000000E+00  0.00000000000E+00  0.45593999997E+02  0.45594000000E+02  0.51100000000E-03 0.  1.
         11   -1    0    0    0    0 -0.00000000000E+00 -0.00000000000E+00 -0.45593999997E+02  0.45594000000E+02  0.51100000000E-03 0. -1.
    9900012    2    1    2    0    0 -0.61408060555E+01  0.74707864476E+01  0.39492317313E+02  0.50528864792E+02  0.30000015021E+02 0.  0.
         12    1    1    2    0    0  0.61408060555E+01 -0.74707864476E+01 -0.39492317313E+02  0.40659135208E+02  0.00000000000E+00 0. -1.
         11    1    3    3    0    0 -0.10652709170E+02 -0.26964274843E+01  0.42843882797E+01  0.11794359543E+02  0.51100000000E-03 0. -1.
        -11    1    3    3    0    0  0.47148633859E+01 -0.24192906203E+00  0.18118786552E+02  0.18723752102E+02  0.51100000000E-03 0.  1.
         12    1    3    3    0    0 -0.20296027142E+00  0.10409142994E+02  0.17089142481E+02  0.20010753146E+02  0.00000000000E+00 0. -1.
</event>
<event>
 7    1  0.5972636E-013  0.5052886E+02  0.7816164E-02  0.1300439E+00
        -11   -1    0    0    0    0  0.00000000000E+00  0.00000000000E+00  0.45593999997E+02  0.45594000000E+02  0.51100000000E-03 0.  1.
         11   -1    0    0    0    0 -0.00000000000E+00 -0.00000000000E+00 -0.45593999997E+02  0.45594000000E+02  0.51100000000E-03 0. -1.
    9900012    2    1    2    0    0 -0.20416946344E+01  0.36631778745E+02  0.17524557878E+02  0.50528857611E+02  0.29999993194E+02 0.  0.
         12    1    1    2    0    0  0.20416946344E+01 -0.36631778745E+02 -0.17524557878E+02  0.40659142389E+02  0.00000000000E+00 0. -1.
         11    1    3    3    0    0 -0.15520515652E+02  0.19545623329E+02  0.12676987560E+02  0.27993281539E+02  0.51100000000E-03 0. -1.
        -11    1    3    3    0    0  0.27701479575E+01  0.39407072166E+01  0.24737752872E+01  0.54150214686E+01  0.51100000000E-03 0.  1.
         12    1    3    3    0    0  0.10708673060E+02  0.13145448199E+02  0.23737950300E+01  0.17120554603E+02  0.00000000000E+00 0. -1.
</event>
<event>
 7    1  0.5972636E-013  0.5052886E+02  0.7816164E-02  0.1300439E+00
        -11   -1    0    0    0    0  0.00000000000E+00  0.00000000000E+00  0.45593999997E+02  0.45594000000E+02  0.51100000000E-03 0.  1.
         11   -1    0    0    0    0 -0.00000000000E+00 -0.00000000000E+00 -0.45593999997E+02  0.45594000000E+02  0.51100000000E-03 0. -1.
    9900012    2    1    2    0    0  0.88346019805E+01  0.11174964817E+02  0.38081963006E+02  0.50528856659E+02  0.29999990300E+02 0.  0.
         12    1    1    2    0    0 -0.88346019805E+01 -0.11174964817E+02 -0.38081963006E+02  0.40659143341E+02  0.00000000000E+00 0. -1.
         11    1    3    3    0    0  0.85498697380E+01  0.11461725978E+02  0.47003757747E+01  0.15052075193E+02  0.51100000000E-03 0. -1.
        -11    1    3    3    0    0  0.33148160473E+01  0.26993151690E+00  0.31873736206E+02  0.32046777193E+02  0.51100000000E-03 0.  1.
         12    1    3    3    0    0 -0.30300838047E+01 -0.55669267783E+00  0.15078510259E+01  0.34300042737E+01  0.00000000000E+00 0. -1.
</event>
<event>
 7    1  0.5972636E-013  0.5052885E+02  0.7816164E-02  0.1300439E+00
        -11   -1    0    0    0    0  0.00000000000E+00  0.00000000000E+00  0.45593999997E+02  0.45594000000E+02  0.51100000000E-03 0.  1.
         11   -1    0    0    0    0 -0.00000000000E+00 -0.00000000000E+00 -0.45593999997E+02  0.45594000000E+02  0.51100000000E-03 0. -1.
    9900012    2    1    2    0    0 -0.39847403487E+02  0.78188688365E+01 -0.20532656716E+01  0.50528853742E+02  0.29999981433E+02 0.  0.
         12    1    1    2    0    0  0.39847403487E+02 -0.78188688365E+01  0.20532656716E+01  0.40659146258E+02  0.00000000000E+00 0. -1.
         11    1    3    3    0    0 -0.63096381141E+01 -0.81904234509E+01  0.25746810245E+01  0.10654743173E+02  0.51100000000E-03 0. -1.
        -11    1    3    3    0    0 -0.33283721711E+02  0.13294338796E+02 -0.66846717057E+01  0.36458612302E+02  0.51100000000E-03 0.  1.
        -12    1    3    3    0    0 -0.25404366254E+00  0.27149534918E+01  0.20567250097E+01  0.34154982668E+01  0.00000000000E+00 0.  1.
</event>
<event>
 7    1  0.5972636E-013  0.5052886E+02  0.7816164E-02  0.1300439E+00
        -11   -1    0    0    0    0  0.00000000000E+00  0.00000000000E+00  0.45593999997E+02  0.45594000000E+02  0.51100000000E-03 0.  1.
         11   -1    0    0    0    0 -0.00000000000E+00 -0.00000000000E+00 -0.45593999997E+02  0.45594000000E+02  0.51100000000E-03 0. -1.
    9900012    2    1    2    0    0  0.27747696203E+02 -0.34785978307E+01  0.29514916122E+02  0.50528861284E+02  0.30000004359E+02 0.  0.
         12    1    1    2    0    0 -0.27747696203E+02  0.34785978307E+01 -0.29514916122E+02  0.40659138716E+02  0.00000000000E+00 0. -1.
         11    1    3    3    0    0  0.21981551604E+02 -0.22883174480E+00  0.35654639750E+01  0.22270013662E+02  0.51100000000E-03 0. -1.
        -11    1    3    3    0    0  0.51590894764E+01 -0.61342247207E+01  0.16214551876E+02  0.18087471076E+02  0.51100000000E-03 0.  1.
        -12    1    3    3    0    0  0.60705512239E+00  0.28844586348E+01  0.97349002712E+01  0.10171376545E+02  0.00000000000E+00 0.  1.
</event>
<event>
 7    1  0.5972636E-013  0.5052886E+02  0.7816164E-02  0.1300439E+00
        -11   -1    0    0    0    0  0.00000000000E+00  0.00000000000E+00  0.45593999997E+02  0.45594000000E+02  0.51100000000E-03 0.  1.
         11   -1    0    0    0    0 -0.00000000000E+00 -0.00000000000E+00 -0.45593999997E+02  0.45594000000E+02  0.51100000000E-03 0. -1.
    9900012    2    1    2    0    0  0.24300750069E+02  0.58981968186E+01  0.32060109857E+02  0.50528858055E+02  0.29999994545E+02 0.  0.
         12    1    1    2    0    0 -0.24300750069E+02 -0.58981968186E+01 -0.32060109857E+02  0.40659141945E+02  0.00000000000E+00 0. -1.
         11    1    3    3    0    0  0.11773633974E+01  0.20921943187E+01  0.24686517407E+02  0.24802975700E+02  0.51100000000E-03 0. -1.
        -11    1    3    3    0    0  0.19278962995E+02  0.36597260491E+00  0.44242350581E+01  0.19783483167E+02  0.51100000000E-03 0.  1.
         12    1    3    3    0    0  0.38444236763E+01  0.34400298950E+01  0.29493573921E+01  0.59423991878E+01  0.00000000000E+00 0. -1.
</event>
<event>
 7    1  0.5972636E-013  0.5052888E+02  0.7816164E-02  0.1300439E+00
        -11   -1    0    0    0    0  0.00000000000E+00  0.00000000000E+00  0.45593999997E+02  0.45594000000E+02  0.51100000000E-03 0. -1.
         11   -1    0    0    0    0 -0.00000000000E+00 -0.00000000000E+00 -0.45593999997E+02  0.45594000000E+02  0.51100000000E-03 0.  1.
    9900012    2    1    2    0    0 -0.23827134443E+02  0.12921632377E+02 -0.30306159511E+02  0.50528877735E+02  0.30000054364E+02 0.  0.
         12    1    1    2    0    0  0.23827134443E+02 -0.12921632377E+02  0.30306159511E+02  0.40659122265E+02  0.00000000000E+00 0. -1.
         11    1    3    3    0    0 -0.53820727598E+01  0.44586057332E+01  0.47256549028E+01  0.84366869562E+01  0.51100000000E-03 0. -1.
        -11    1    3    3    0    0 -0.17465349256E+02  0.97141826353E+01 -0.25348012575E+02  0.32278870963E+02  0.51100000000E-03 0.  1.
         12    1    3    3    0    0 -0.97971242742E+00 -0.12511559916E+01 -0.96838018385E+01  0.98133198156E+01  0.00000000000E+00 0. -1.
</event>
<event>
 7    1  0.5972636E-013  0.5052886E+02  0.7816164E-02  0.1300439E+00
        -11   -1    0    0    0    0  0.00000000000E+00  0.00000000000E+00  0.45593999997E+02  0.45594000000E+02  0.51100000000E-03 0. -1.
         11   -1    0    0    0    0 -0.00000000000E+00 -0.00000000000E+00 -0.45593999997E+02  0.45594000000E+02  0.51100000000E-03 0.  1.
    9900012    2    1    2    0    0 -0.31038238955E+02 -0.18244070858E+01 -0.26200471111E+02  0.50528862958E+02  0.30000009446E+02 0.  0.
         12    1    1    2    0    0  0.31038238955E+02  0.18244070858E+01  0.26200471111E+02  0.40659137042E+02  0.00000000000E+00 0. -1.
         11    1    3    3    0    0  0.39989304383E+01  0.68211645257E+00 -0.94363078879E+00  0.41649930170E+01  0.51100000000E-03 0. -1.
        -11    1    3    3    0    0 -0.21281308464E+02 -0.43249663493E+01 -0.24098991450E+02  0.32440111175E+02  0.51100000000E-03 0.  1.
         12    1    3    3    0    0 -0.13755860929E+02  0.18184428109E+01 -0.11578488715E+01  0.13923758766E+02  0.00000000000E+00 0. -1.
</event>
<event>
 7    1  0.5972636E-013  0.5052886E+02  0.7816164E-02  0.1300439E+00
        -11   -1    0    0    0    0  0.00000000000E+00  0.00000000000E+00  0.45593999997E+02  0.45594000000E+02  0.51100000000E-03 0. -1.
         11   -1    0    0    0    0 -0.00000000000E+00 -0.00000000000E+00 -0.45593999997E+02  0.45594000000E+02  0.51100000000E-03 0.  1.
    9900012    2    1    2    0    0 -0.28282169143E+02 -0.18757620008E+02 -0.22392777282E+02  0.50528857434E+02  0.29999992656E+02 0.  0.
         12    1    1    2    0    0  0.28282169143E+02  0.18757620008E+02  0.22392777282E+02  0.40659142566E+02  0.00000000000E+00 0. -1.
         11    1    3    3    0    0 -0.22210673808E+02 -0.75123903668E+01 -0.11050924949E+02  0.25920512775E+02  0.51100000000E-03 0.  1.
        -11    1    3    3    0    0  0.43542291925E+01 -0.10237623166E+02 -0.40221072338E+01  0.11829859966E+02  0.51100000000E-03 0. -1.
         12    1    3    3    0    0 -0.10425724528E+02 -0.10076064750E+01 -0.73197450990E+01  0.12778484693E+02  0.00000000000E+00 0. -1.
</event>
<event>
 7    1  0.5972636E-013  0.5052887E+02  0.7816164E-02  0.1300439E+00
        -11   -1    0    0    0    0  0.00000000000E+00  0.00000000000E+00  0.45593999997E+02  0.45594000000E+02  0.51100000000E-03 0. -1.
         11   -1    0    0    0    0 -0.00000000000E+00 -0.00000000000E+00 -0.45593999997E+02  0.45594000000E+02  0.51100000000E-03 0.  1.
    9900012    2    1    2    0    0  0.29079786793E+02 -0.26128806459E+02 -0.11172121418E+02  0.50528870350E+02  0.30000031917E+02 0.  0.
         12    1    1    2    0    0 -0.29079786793E+02  0.26128806459E+02  0.11172121418E+02  0.40659129650E+02  0.00000000000E+00 0. -1.
         11    1    3    3    0    0  0.29349582753E+02 -0.27608133881E+02 -0.14245690733E+02  0.42738118453E+02  0.51100000000E-03 0.  1.
        -11    1    3    3    0    0  0.21407964940E+00 -0.16640869792E+01 -0.14794458149E+01  0.22369121018E+01  0.51100000000E-03 0. -1.
         12    1    3    3    0    0 -0.48387560980E+00  0.31434144009E+01  0.45530151302E+01  0.55538397958E+01  0.00000000000E+00 0. -1.
</event>
<event>
 7    1  0.5972636E-013  0.5052885E+02  0.7816164E-02  0.1300439E+00
        -11   -1    0    0    0    0  0.00000000000E+00  0.00000000000E+00  0.45593999997E+02  0.45594000000E+02  0.51100000000E-03 0.  1.
         11   -1    0    0    0    0 -0.00000000000E+00 -0.00000000000E+00 -0.45593999997E+02  0.45594000000E+02  0.51100000000E-03 0. -1.
    9900012    2    1    2    0    0  0.33322086669E+01 -0.21416621757E+02  0.34400456600E+02  0.50528847078E+02  0.29999961178E+02 0.  0.
         12    1    1    2    0    0 -0.33322086669E+01  0.21416621757E+02 -0.34400456600E+02  0.40659152922E+02  0.00000000000E+00 0. -1.
         11    1    3    3    0    0 -0.32604669084E+01 -0.12686086895E+02  0.14198600513E+01  0.13175107134E+02  0.51100000000E-03 0. -1.
        -11    1    3    3    0    0 -0.51292507584E+00 -0.93173935116E+01  0.24825742361E+02  0.26521583626E+02  0.51100000000E-03 0.  1.
         12    1    3    3    0    0  0.71056006512E+01  0.58685864886E+00  0.81548541873E+01  0.10832156318E+02  0.00000000000E+00 0. -1.
</event>
<event>
 7    1  0.5972636E-013  0.5052885E+02  0.7816164E-02  0.1300439E+00
        -11   -1    0    0    0    0  0.00000000000E+00  0.00000000000E+00  0.45593999997E+02  0.45594000000E+02  0.51100000000E-03 0.  1.
         11   -1    0    0    0    0 -0.00000000000E+00 -0.00000000000E+00 -0.45593999997E+02  0.45594000000E+02  0.51100000000E-03 0. -1.
    9900012    2    1    2    0    0 -0.39915679674E+02 -0.64969951877E+00 -0.77124941566E+01  0.50528853927E+02  0.29999981997E+02 0.  0.
         12    1    1    2    0    0  0.39915679674E+02  0.64969951877E+00  0.77124941566E+01  0.40659146073E+02  0.00000000000E+00 0. -1.
         11    1    3    3    0    0  0.13020541536E+01  0.86477535502E+00 -0.21070205233E+01  0.26234933162E+01  0.51100000000E-03 0. -1.
        -11    1    3    3    0    0 -0.22563822814E+02  0.11008644839E+02 -0.27134859674E+01  0.25252314103E+02  0.51100000000E-03 0.  1.
        -12    1    3    3    0    0 -0.18653911013E+02 -0.12523119713E+02 -0.28919876658E+01  0.22653046508E+02  0.00000000000E+00 0.  1.
</event>
<event>
 7    1  0.6120608E-013  0.5052889E+02  0.7816164E-02  0.1300439E+00
        -11   -1    0    0    0    0  0.00000000000E+00  0.00000000000E+00  0.45593999997E+02  0.45594000000E+02  0.51100000000E-03 0. -1.
         11   -1    0    0    0    0 -0.00000000000E+00 -0.00000000000E+00 -0.45593999997E+02  0.45594000000E+02  0.51100000000E-03 0.  1.
    9900012    2    1    2    0    0  0.12921084708E+02  0.88451617418E+00 -0.38541234132E+02  0.50528886295E+02  0.30000080381E+02 0.  0.
         12    1    1    2    0    0 -0.12921084708E+02 -0.88451617418E+00  0.38541234132E+02  0.40659113705E+02  0.00000000000E+00 0. -1.
         11    1    3    3    0    0 -0.42128427299E+01 -0.31550341393E+00 -0.72404720378E+01  0.83828409183E+01  0.51100000000E-03 0. -1.
        -11    1    3    3    0    0  0.11578795339E+02  0.11484637260E+02 -0.15567092793E+02  0.22545504492E+02  0.51100000000E-03 0.  1.
        -12    1    3    3    0    0  0.55551320996E+01 -0.10284617672E+02 -0.15733669300E+02  0.19600540884E+02  0.00000000000E+00 0.  1.
</event>
<event>
 7    1  0.5972636E-013  0.5052886E+02  0.7816164E-02  0.1300439E+00
        -11   -1    0    0    0    0  0.00000000000E+00  0.00000000000E+00  0.45593999997E+02  0.45594000000E+02  0.51100000000E-03 0.  1.
         11   -1    0    0    0    0 -0.00000000000E+00 -0.00000000000E+00 -0.45593999997E+02  0.45594000000E+02  0.51100000000E-03 0. -1.
    9900012    2    1    2    0    0  0.41705236077E+01 -0.38404696596E+02  0.12682731891E+02  0.50528859871E+02  0.30000000064E+02 0.  0.
         12    1    1    2    0    0 -0.41705236077E+01  0.38404696596E+02 -0.12682731891E+02  0.40659140129E+02  0.00000000000E+00 0. -1.
         11    1    3    3    0    0  0.74265886732E+01 -0.15177933442E+02 -0.69967392881E+01  0.18288746371E+02  0.51100000000E-03 0. -1.
        -11    1    3    3    0    0 -0.52259862375E+00 -0.15184808183E+02  0.64223507605E+01  0.16495396280E+02  0.51100000000E-03 0.  1.
         12    1    3    3    0    0 -0.27334664417E+01 -0.80419549704E+01  0.13257120419E+02  0.15744717220E+02  0.00000000000E+00 0. -1.
</event>
<event>
 7    1  0.5972636E-013  0.5052886E+02  0.7816164E-02  0.1300439E+00
        -11   -1    0    0    0    0  0.00000000000E+00  0.00000000000E+00  0.45593999997E+02  0.45594000000E+02  0.51100000000E-03 0.  1.
         11   -1    0    0    0    0 -0.00000000000E+00 -0.00000000000E+00 -0.45593999997E+02  0.45594000000E+02  0.51100000000E-03 0. -1.
    9900012    2    1    2    0    0 -0.34170692569E+01 -0.76205015825E+01  0.39792177219E+02  0.50528858660E+02  0.29999996383E+02 0.  0.
         12    1    1    2    0    0  0.34170692569E+01  0.76205015825E+01 -0.39792177219E+02  0.40659141340E+02  0.00000000000E+00 0. -1.
         11    1    3    3    0    0  0.39814086916E+01 -0.14280626179E+02  0.11066420122E+02  0.18500096049E+02  0.51100000000E-03 0. -1.
        -11    1    3    3    0    0 -0.87460148364E+01  0.52572243250E+01  0.14855009919E+02  0.18022277966E+02  0.51100000000E-03 0.  1.
         12    1    3    3    0    0  0.13475368878E+01  0.14029002718E+01  0.13870747179E+02  0.14006484646E+02  0.00000000000E+00 0. -1.
</event>
<event>
 7    1  0.5972636E-013  0.5052885E+02  0.7816164E-02  0.1300439E+00
        -11   -1    0    0    0    0  0.00000000000E+00  0.00000000000E+00  0.45593999997E+02  0.45594000000E+02  0.51100000000E-03 0.  1.
         11   -1    0    0    0    0 -0.00000000000E+00 -0.00000000000E+00 -0.45593999997E+02  0.45594000000E+02  0.51100000000E-03 0. -1.
    9900012    2    1    2    0    0 -0.15998254163E+02  0.27830243607E+02  0.24953958803E+02  0.50528847827E+02  0.29999963455E+02 0.  0.
         12    1    1    2    0    0  0.15998254163E+02 -0.27830243607E+02 -0.24953958803E+02  0.40659152173E+02  0.00000000000E+00 0. -1.
         11    1    3    3    0    0 -0.54240423409E+01  0.56256009671E+01  0.79135964983E+01  0.11121718903E+02  0.51100000000E-03 0.  1.
        -11    1    3    3    0    0  0.68608758778E+01  0.15070927586E+02  0.96893333254E+01  0.19185610667E+02  0.51100000000E-03 0. -1.
        -12    1    3    3    0    0 -0.17435087700E+02  0.71337150546E+01  0.73510289792E+01  0.20221518257E+02  0.00000000000E+00 0.  1.
</event>
<event>
 7    1  0.5972636E-013  0.5052887E+02  0.7816164E-02  0.1300439E+00
        -11   -1    0    0    0    0  0.00000000000E+00  0.00000000000E+00  0.45593999997E+02  0.45594000000E+02  0.51100000000E-03 0.  1.
         11   -1    0    0    0    0 -0.00000000000E+00 -0.00000000000E+00 -0.45593999997E+02  0.45594000000E+02  0.51100000000E-03 0. -1.
    9900012    2    1    2    0    0  0.13359568613E+02 -0.23323859863E+02  0.30507123079E+02  0.50528867311E+02  0.30000022680E+02 0.  0.
         12    1    1    2    0    0 -0.13359568613E+02  0.23323859863E+02 -0.30507123079E+02  0.40659132689E+02  0.00000000000E+00 0. -1.
         11    1    3    3    0    0 -0.88578612220E+00 -0.12718925314E+02  0.10391235174E+01  0.12792007510E+02  0.51100000000E-03 0. -1.
        -11    1    3    3    0    0  0.15163673602E+02 -0.50743449215E+01  0.13889498407E+02  0.21180277141E+02  0.51100000000E-03 0.  1.
        -12    1    3    3    0    0 -0.91831886717E+00 -0.55305896276E+01  0.15578501154E+02  0.16556582660E+02  0.00000000000E+00 0.  1.
</event>
<event>
 7    1  0.5972636E-013  0.5052886E+02  0.7816164E-02  0.1300439E+00
        -11   -1    0    0    0    0  0.00000000000E+00  0.00000000000E+00  0.45593999997E+02  0.45594000000E+02  0.51100000000E-03 0. -1.
         11   -1    0    0    0    0 -0.00000000000E+00 -0.00000000000E+00 -0.45593999997E+02  0.45594000000E+02  0.51100000000E-03 0.  1.
    9900012    2    1    2    0    0 -0.49077450529E+01 -0.33739990392E+02 -0.22151584968E+02  0.50528860440E+02  0.30000001793E+02 0.  0.
         12    1    1    2    0    0  0.49077450529E+01  0.33739990392E+02  0.22151584968E+02  0.40659139560E+02  0.00000000000E+00 0. -1.
         11    1    3    3    0    0 -0.68926532669E+01 -0.34171481981E+01 -0.36820180702E+01  0.85289406256E+01  0.51100000000E-03 0. -1.
        -11    1    3    3    0    0  0.10161237905E+02 -0.74399077747E+01 -0.22736219355E+01  0.12797356775E+02  0.51100000000E-03 0.  1.
        -12    1    3    3    0    0 -0.81763296908E+01 -0.22882934419E+02 -0.16195944963E+02  0.29202563040E+02  0.00000000000E+00 0.  1.
</event>
<event>
 7    1  0.5972636E-013  0.5052886E+02  0.7816164E-02  0.1300439E+00
        -11   -1    0    0    0    0  0.00000000000E+00  0.00000000000E+00  0.45593999997E+02  0.45594000000E+02  0.51100000000E-03 0. -1.
         11   -1    0    0    0    0 -0.00000000000E+00 -0.00000000000E+00 -0.45593999997E+02  0.45594000000E+02  0.51100000000E-03 0.  1.
    9900012    2    1    2    0    0  0.16601898265E+02 -0.31587468991E+02 -0.19487796805E+02  0.50528862680E+02  0.30000008603E+02 0.  0.
         12    1    1    2    0    0 -0.16601898265E+02  0.31587468991E+02  0.19487796805E+02  0.40659137320E+02  0.00000000000E+00 0. -1.
         11    1    3    3    0    0  0.20838342696E+02 -0.27360354764E+02 -0.96512271609E+01  0.35720746424E+02  0.51100000000E-03 0. -1.
        -11    1    3    3    0    0 -0.37309213695E+01 -0.43992400360E+01 -0.11605699193E+02  0.12960144335E+02  0.51100000000E-03 0.  1.
         12    1    3    3    0    0 -0.50552306103E+00  0.17212580951E+00  0.17691295490E+01  0.18479719209E+01  0.00000000000E+00 0. -1.
</event>
<event>
 7    1  0.5972636E-013  0.5052886E+02  0.7816164E-02  0.1300439E+00
        -11   -1    0    0    0    0  0.00000000000E+00  0.00000000000E+00  0.45593999997E+02  0.45594000000E+02  0.51100000000E-03 0.  1.
         11   -1    0    0    0    0 -0.00000000000E+00 -0.00000000000E+00 -0.45593999997E+02  0.45594000000E+02  0.51100000000E-03 0. -1.
    9900012    2    1    2    0    0  0.27374186394E+02 -0.15510896675E+02  0.25753279473E+02  0.50528863265E+02  0.30000010381E+02 0.  0.
         12    1    1    2    0    0 -0.27374186394E+02  0.15510896675E+02 -0.25753279473E+02  0.40659136735E+02  0.00000000000E+00 0. -1.
         11    1    3    3    0    0 -0.42035104739E+01 -0.71537528233E+01  0.17703551787E+01  0.84840932032E+01  0.51100000000E-03 0. -1.
        -11    1    3    3    0    0  0.13377493874E+02 -0.28019907584E+01  0.35459420681E+01  0.14120276200E+02  0.51100000000E-03 0.  1.
        -12    1    3    3    0    0  0.18200202993E+02 -0.55551530931E+01  0.20436982227E+02  0.27924493862E+02  0.00000000000E+00 0.  1.
</event>
<event>
 7    1  0.5972636E-013  0.5052887E+02  0.7816164E-02  0.1300439E+00
        -11   -1    0    0    0    0  0.00000000000E+00  0.00000000000E+00  0.45593999997E+02  0.45594000000E+02  0.51100000000E-03 0.  1.
         11   -1    0    0    0    0 -0.00000000000E+00 -0.00000000000E+00 -0.45593999997E+02  0.45594000000E+02  0.51100000000E-03 0. -1.
    9900012    2    1    2    0    0 -0.41448874401E+01  0.26097256102E+02  0.30901752509E+02  0.50528866019E+02  0.30000018753E+02 0.  0.
         12    1    1    2    0    0  0.41448874401E+01 -0.26097256102E+02 -0.30901752509E+02  0.40659133981E+02  0.00000000000E+00 0. -1.
         11    1    3    3    0    0  0.75490342847E+01  0.94046601787E+01  0.14356672802E+02  0.18749656155E+02  0.51100000000E-03 0. -1.
        -11    1    3    3    0    0 -0.89600039717E+01  0.24416651890E+01  0.14365146486E+02  0.17105579029E+02  0.51100000000E-03 0.  1.
        -12    1    3    3    0    0 -0.27339177531E+01  0.14250930734E+02  0.21799332201E+01  0.14673630836E+02  0.00000000000E+00 0.  1.
</event>
<event>
 7    1  0.5972636E-013  0.5052885E+02  0.7816164E-02  0.1300439E+00
        -11   -1    0    0    0    0  0.00000000000E+00  0.00000000000E+00  0.45593999997E+02  0.45594000000E+02  0.51100000000E-03 0. -1.
         11   -1    0    0    0    0 -0.00000000000E+00 -0.00000000000E+00 -0.45593999997E+02  0.45594000000E+02  0.51100000000E-03 0.  1.
    9900012    2    1    2    0    0 -0.38650236504E+02 -0.12275249561E+02  0.29400273415E+01  0.50528852267E+02  0.29999976950E+02 0.  0.
         12    1    1    2    0    0  0.38650236504E+02  0.12275249561E+02 -0.29400273415E+01  0.40659147733E+02  0.00000000000E+00 0. -1.
         11    1    3    3    0    0 -0.17501681104E+02 -0.52032924825E+01  0.98985393355E+01  0.20769308495E+02  0.51100000000E-03 0. -1.
        -11    1    3    3    0    0 -0.18431801075E+02 -0.81178310428E+01 -0.12355038798E+02  0.23627895710E+02  0.51100000000E-03 0.  1.
        -12    1    3    3    0    0 -0.27167543250E+01  0.10458739640E+01  0.53965268038E+01  0.61316480619E+01  0.00000000000E+00 0.  1.
</event>
<event>
 7    1  0.5972636E-013  0.5052879E+02  0.7816164E-02  0.1300439E+00
        -11   -1    0    0    0    0  0.00000000000E+00  0.00000000000E+00  0.45593999997E+02  0.45594000000E+02  0.51100000000E-03 0.  1.
         11   -1    0    0    0    0 -0.00000000000E+00 -0.00000000000E+00 -0.45593999997E+02  0.45594000000E+02  0.51100000000E-03 0. -1.
    9900012    2    1    2    0    0  0.40343611577E+02  0.22320527299E+01  0.45367852035E+01  0.50528788566E+02  0.29999783323E+02 0.  0.
         12    1    1    2    0    0 -0.40343611577E+02 -0.22320527299E+01 -0.45367852035E+01  0.40659211434E+02  0.00000000000E+00 0. -1.
         11    1    3    3    0    0  0.10724297964E+02  0.10125765963E+02 -0.77964595433E+00  0.14769886636E+02  0.51100000000E-03 0. -1.
        -11    1    3    3    0    0  0.31535570438E+02 -0.92625234364E+01  0.41429489389E+01  0.33127791497E+02  0.51100000000E-03 0.  1.
        -12    1    3    3    0    0 -0.19162568252E+01  0.13688102035E+01  0.11734822190E+01  0.26311104332E+01  0.00000000000E+00 0.  1.
</event>
<event>
 7    1  0.5972636E-013  0.5052886E+02  0.7816164E-02  0.1300439E+00
        -11   -1    0    0    0    0  0.00000000000E+00  0.00000000000E+00  0.45593999997E+02  0.45594000000E+02  0.51100000000E-03 0.  1.
         11   -1    0    0    0    0 -0.00000000000E+00 -0.00000000000E+00 -0.45593999997E+02  0.45594000000E+02  0.51100000000E-03 0. -1.
    9900012    2    1    2    0    0  0.22238821175E+01  0.90857639659E+01  0.39568536913E+02  0.50528857461E+02  0.29999992739E+02 0.  0.
         12    1    1    2    0    0 -0.22238821175E+01 -0.90857639659E+01 -0.39568536913E+02  0.40659142539E+02  0.00000000000E+00 0. -1.
         11    1    3    3    0    0  0.17771029999E+01  0.90145690509E+01  0.12726619194E+01  0.92757866980E+01  0.51100000000E-03 0. -1.
        -11    1    3    3    0    0  0.74356970929E+01 -0.24218724499E+00  0.12702921270E+02  0.14721156713E+02  0.51100000000E-03 0.  1.
         12    1    3    3    0    0 -0.69889179753E+01  0.31338215998E+00  0.25592953724E+02  0.26531914050E+02  0.00000000000E+00 0. -1.
</event>
<event>
 7    1  0.5972636E-013  0.5052885E+02  0.7816164E-02  0.1300439E+00
        -11   -1    0    0    0    0  0.00000000000E+00  0.00000000000E+00  0.45593999997E+02  0.45594000000E+02  0.51100000000E-03 0.  1.
         11   -1    0    0    0    0 -0.00000000000E+00 -0.00000000000E+00 -0.45593999997E+02  0.45594000000E+02  0.51100000000E-03 0. -1.
    9900012    2    1    2    0    0  0.17285974421E+02 -0.24307402526E+02  0.27631721428E+02  0.50528846562E+02  0.29999959608E+02 0.  0.
         12    1    1    2    0    0 -0.17285974421E+02  0.24307402526E+02 -0.27631721428E+02  0.40659153438E+02  0.00000000000E+00 0. -1.
         11    1    3    3    0    0  0.90923095551E+01 -0.18484416117E+02  0.69045807325E+01  0.21725951477E+02  0.51100000000E-03 0. -1.
        -11    1    3    3    0    0  0.10139603973E+02 -0.18399913883E+01  0.21912026177E+02  0.24214335186E+02  0.51100000000E-03 0.  1.
        -12    1    3    3    0    0 -0.19459391066E+01 -0.39829950208E+01 -0.11848854814E+01  0.45885598990E+01  0.00000000000E+00 0.  1.
</event>
<event>
 7    1  0.5972636E-013  0.5052883E+02  0.7816164E-02  0.1300439E+00
        -11   -1    0    0    0    0  0.00000000000E+00  0.00000000000E+00  0.45593999997E+02  0.45594000000E+02  0.51100000000E-03 0.  1.
         11   -1    0    0    0    0 -0.00000000000E+00 -0.00000000000E+00 -0.45593999997E+02  0.45594000000E+02  0.51100000000E-03 0. -1.
    9900012    2    1    2    0    0 -0.36069773428E+02  0.13715956026E+02  0.12806705765E+02  0.50528834768E+02  0.29999923760E+02 0.  0.
         12    1    1    2    0    0  0.36069773428E+02 -0.13715956026E+02 -0.12806705765E+02  0.40659165232E+02  0.00000000000E+00 0. -1.
         11    1    3    3    0    0 -0.10243682936E+02 -0.17042713386E+01 -0.52192940374E+01  0.11622332442E+02  0.51100000000E-03 0. -1.
        -11    1    3    3    0    0 -0.11815363935E+02  0.16202225261E+02  0.13453829423E+02  0.24147887169E+02  0.51100000000E-03 0.  1.
        -12    1    3    3    0    0 -0.14010726557E+02 -0.78199789647E+00  0.45721703786E+01  0.14758615157E+02  0.00000000000E+00 0.  1.
</event>
<event>
 7    1  0.5972636E-013  0.5052874E+02  0.7816164E-02  0.1300439E+00
        -11   -1    0    0    0    0  0.00000000000E+00  0.00000000000E+00  0.45593999997E+02  0.45594000000E+02  0.51100000000E-03 0.  1.
         11   -1    0    0    0    0 -0.00000000000E+00 -0.00000000000E+00 -0.45593999997E+02  0.45594000000E+02  0.51100000000E-03 0. -1.
    9900012    2    1    2    0    0 -0.22211243829E+01 -0.25730930307E+02  0.31403208725E+02  0.50528736773E+02  0.29999625892E+02 0.  0.
         12    1    1    2    0    0  0.22211243829E+01  0.25730930307E+02 -0.31403208725E+02  0.40659263227E+02  0.00000000000E+00 0. -1.
         11    1    3    3    0    0 -0.54657954625E+01 -0.25269894569E+01 -0.23665037400E+01  0.64700027794E+01  0.51100000000E-03 0. -1.
        -11    1    3    3    0    0  0.42808706928E+01 -0.22696293630E+02  0.20935600515E+02  0.31172856263E+02  0.51100000000E-03 0.  1.
         12    1    3    3    0    0 -0.10361996133E+01 -0.50764722015E+00  0.12834111949E+02  0.12885877730E+02  0.00000000000E+00 0. -1.
</event>
<event>
 7    1  0.5972636E-013  0.5052886E+02  0.7816164E-02  0.1300439E+00
        -11   -1    0    0    0    0  0.00000000000E+00  0.00000000000E+00  0.45593999997E+02  0.45594000000E+02  0.51100000000E-03 0.  1.
         11   -1    0    0    0    0 -0.00000000000E+00 -0.00000000000E+00 -0.45593999997E+02  0.45594000000E+02  0.51100000000E-03 0. -1.
    9900012    2    1    2    0    0  0.33837795910E+02  0.12383521882E+02 -0.18836607003E+02  0.50528858228E+02  0.29999995071E+02 0.  0.
         12    1    1    2    0    0 -0.33837795910E+02 -0.12383521882E+02  0.18836607003E+02  0.40659141772E+02  0.00000000000E+00 0. -1.
         11    1    3    3    0    0  0.54856075288E+01 -0.83938886907E+00 -0.14842757673E+02  0.15846258841E+02  0.51100000000E-03 0. -1.
        -11    1    3    3    0    0  0.18371125130E+02  0.15468695059E+02 -0.45226025694E+01  0.24438344863E+02  0.51100000000E-03 0.  1.
         12    1    3    3    0    0  0.99810632506E+01 -0.22457843085E+01  0.52875324012E+00  0.10244254524E+02  0.00000000000E+00 0. -1.
</event>
<event>
 7    1  0.5972636E-013  0.5052886E+02  0.7816164E-02  0.1300439E+00
        -11   -1    0    0    0    0  0.00000000000E+00  0.00000000000E+00  0.45593999997E+02  0.45594000000E+02  0.51100000000E-03 0.  1.
         11   -1    0    0    0    0 -0.00000000000E+00 -0.00000000000E+00 -0.45593999997E+02  0.45594000000E+02  0.51100000000E-03 0. -1.
    9900012    2    1    2    0    0  0.19968043052E+02  0.16197863348E+02  0.31497172811E+02  0.50528863076E+02  0.30000009805E+02 0.  0.
         12    1    1    2    0    0 -0.19968043052E+02 -0.16197863348E+02 -0.31497172811E+02  0.40659136924E+02  0.00000000000E+00 0. -1.
         11    1    3    3    0    0  0.17545041113E+02  0.46730853549E+01  0.11727888045E+02  0.21615030711E+02  0.51100000000E-03 0. -1.
        -11    1    3    3    0    0  0.43811638527E+00  0.15012767990E+02  0.92112812485E+01  0.17618820937E+02  0.51100000000E-03 0.  1.
        -12    1    3    3    0    0  0.19848855534E+01 -0.34879899974E+01  0.10558003517E+02  0.11295011428E+02  0.00000000000E+00 0.  1.
</event>
<event>
 7    1  0.5972636E-013  0.5052886E+02  0.7816164E-02  0.1300439E+00
        -11   -1    0    0    0    0  0.00000000000E+00  0.00000000000E+00  0.45593999997E+02  0.45594000000E+02  0.51100000000E-03 0.  1.
         11   -1    0    0    0    0 -0.00000000000E+00 -0.00000000000E+00 -0.45593999997E+02  0.45594000000E+02  0.51100000000E-03 0. -1.
    9900012    2    1    2    0    0 -0.20674840151E+02  0.20744695640E+02  0.28202380293E+02  0.50528859987E+02  0.30000000416E+02 0.  0.
         12    1    1    2    0    0  0.20674840151E+02 -0.20744695640E+02 -0.28202380293E+02  0.40659140013E+02  0.00000000000E+00 0. -1.
         11    1    3    3    0    0 -0.71310587392E+01 -0.64613466122E+01  0.62071947494E+01  0.11451212412E+02  0.51100000000E-03 0. -1.
        -11    1    3    3    0    0 -0.28038520630E+01  0.15411557525E+02  0.69036390732E+01  0.17118350518E+02  0.51100000000E-03 0.  1.
        -12    1    3    3    0    0 -0.10739929349E+02  0.11794484727E+02  0.15091546470E+02  0.21959297057E+02  0.00000000000E+00 0.  1.
</event>
<event>
 7    1  0.5972636E-013  0.5052886E+02  0.7816164E-02  0.1300439E+00
        -11   -1    0    0    0    0  0.00000000000E+00  0.00000000000E+00  0.45593999997E+02  0.45594000000E+02  0.51100000000E-03 0.  1.
         11   -1    0    0    0    0 -0.00000000000E+00 -0.00000000000E+00 -0.45593999997E+02  0.45594000000E+02  0.51100000000E-03 0. -1.
    9900012    2    1    2    0    0 -0.19042986228E+02 -0.22853767249E+02  0.27717063357E+02  0.50528860768E+02  0.30000002791E+02 0.  0.
         12    1    1    2    0    0  0.19042986228E+02  0.22853767249E+02 -0.27717063357E+02  0.40659139232E+02  0.00000000000E+00 0. -1.
         11    1    3    3    0    0 -0.37271834881E+01 -0.40211538217E+01 -0.58272466668E+00  0.55137231622E+01  0.51100000000E-03 0. -1.
        -11    1    3    3    0    0 -0.10316345875E+01 -0.12206472619E+02  0.26464706440E+02  0.29162354688E+02  0.51100000000E-03 0.  1.
        -12    1    3    3    0    0 -0.14284168153E+02 -0.66261408080E+01  0.18350815832E+01  0.15852782918E+02  0.00000000000E+00 0.  1.
</event>
<event>
 7    1  0.5972636E-013  0.5052886E+02  0.7816164E-02  0.1300439E+00
        -11   -1    0    0    0    0  0.00000000000E+00  0.00000000000E+00  0.45593999997E+02  0.45594000000E+02  0.51100000000E-03 0.  1.
         11   -1    0    0    0    0 -0.00000000000E+00 -0.00000000000E+00 -0.45593999997E+02  0.45594000000E+02  0.51100000000E-03 0. -1.
    9900012    2    1    2    0    0  0.39355625974E+01  0.14637335550E+02  0.37728313859E+02  0.50528856974E+02  0.29999991258E+02 0.  0.
         12    1    1    2    0    0 -0.39355625974E+01 -0.14637335550E+02 -0.37728313859E+02  0.40659143026E+02  0.00000000000E+00 0. -1.
         11    1    3    3    0    0  0.20786510390E+01  0.34705051419E+01 -0.35378043496E+01  0.53741283906E+01  0.51100000000E-03 0. -1.
        -11    1    3    3    0    0  0.79959206723E+01  0.81744046474E+01  0.23923582671E+02  0.26515909315E+02  0.51100000000E-03 0.  1.
        -12    1    3    3    0    0 -0.61390091139E+01  0.29924257612E+01  0.17342535537E+02  0.18638819268E+02  0.00000000000E+00 0.  1.
</event>
<event>
 7    1  0.5972636E-013  0.5052886E+02  0.7816164E-02  0.1300439E+00
        -11   -1    0    0    0    0  0.00000000000E+00  0.00000000000E+00  0.45593999997E+02  0.45594000000E+02  0.51100000000E-03 0. -1.
         11   -1    0    0    0    0 -0.00000000000E+00 -0.00000000000E+00 -0.45593999997E+02  0.45594000000E+02  0.51100000000E-03 0.  1.
    9900012    2    1    2    0    0  0.31048714725E+01  0.64764859008E+01 -0.40019753109E+02  0.50528859141E+02  0.29999997844E+02 0.  0.
         12    1    1    2    0    0 -0.31048714725E+01 -0.64764859008E+01  0.40019753109E+02  0.40659140859E+02  0.00000000000E+00 0. -1.
         11    1    3    3    0    0  0.22657537379E+01  0.28216709496E+01  0.79141275369E+00  0.37042949878E+01  0.51100000000E-03 0. -1.
        -11    1    3    3    0    0 -0.93642322792E+01  0.36119480863E+01 -0.31321495183E+02  0.32890288475E+02  0.51100000000E-03 0.  1.
        -12    1    3    3    0    0  0.10203350014E+02  0.42866864859E-01 -0.94896706797E+01  0.13934275678E+02  0.00000000000E+00 0.  1.
</event>
<event>
 7    1  0.5972636E-013  0.5052887E+02  0.7816164E-02  0.1300439E+00
        -11   -1    0    0    0    0  0.00000000000E+00  0.00000000000E+00  0.45593999997E+02  0.45594000000E+02  0.51100000000E-03 0.  1.
         11   -1    0    0    0    0 -0.00000000000E+00 -0.00000000000E+00 -0.45593999997E+02  0.45594000000E+02  0.51100000000E-03 0. -1.
    9900012    2    1    2    0    0  0.19362009610E+02  0.26482970830E+01  0.35654791169E+02  0.50528867854E+02  0.30000024329E+02 0.  0.
         12    1    1    2    0    0 -0.19362009610E+02 -0.26482970830E+01 -0.35654791169E+02  0.40659132146E+02  0.00000000000E+00 0. -1.
         11    1    3    3    0    0  0.11400552741E+01  0.49470929680E+00 -0.44329076753E+01  0.46038173330E+01  0.51100000000E-03 0. -1.
        -11    1    3    3    0    0  0.13040053995E+02 -0.45784609381E+01  0.22775463715E+02  0.26640703078E+02  0.51100000000E-03 0.  1.
        -12    1    3    3    0    0  0.51819003404E+01  0.67320487243E+01  0.17312235129E+02  0.19284347443E+02  0.00000000000E+00 0.  1.
</event>
<event>
 7    1  0.5972636E-013  0.5052886E+02  0.7816164E-02  0.1300439E+00
        -11   -1    0    0    0    0  0.00000000000E+00  0.00000000000E+00  0.45593999997E+02  0.45594000000E+02  0.51100000000E-03 0. -1.
         11   -1    0    0    0    0 -0.00000000000E+00 -0.00000000000E+00 -0.45593999997E+02  0.45594000000E+02  0.51100000000E-03 0.  1.
    9900012    2    1    2    0    0  0.23865515408E+02 -0.16409080435E+02 -0.28536724604E+02  0.50528863296E+02  0.30000010475E+02 0.  0.
         12    1    1    2    0    0 -0.23865515408E+02  0.16409080435E+02  0.28536724604E+02  0.40659136704E+02  0.00000000000E+00 0. -1.
         11    1    3    3    0    0 -0.56445256452E+01 -0.78975003680E+01 -0.65478132118E+01  0.11709186135E+02  0.51100000000E-03 0. -1.
        -11    1    3    3    0    0  0.18202230842E+02 -0.68389106195E+01 -0.87324107361E+01  0.21315414695E+02  0.51100000000E-03 0.  1.
        -12    1    3    3    0    0  0.11307810211E+02 -0.16726694472E+01 -0.13256500656E+02  0.17504262466E+02  0.00000000000E+00 0.  1.
</event>
<event>
 7    1  0.5972636E-013  0.5052888E+02  0.7816164E-02  0.1300439E+00
        -11   -1    0    0    0    0  0.00000000000E+00  0.00000000000E+00  0.45593999997E+02  0.45594000000E+02  0.51100000000E-03 0.  1.
         11   -1    0    0    0    0 -0.00000000000E+00 -0.00000000000E+00 -0.45593999997E+02  0.45594000000E+02  0.51100000000E-03 0. -1.
    9900012    2    1    2    0    0 -0.33944151678E+02  0.22249959648E+02 -0.24285452801E+01  0.50528880854E+02  0.30000063845E+02 0.  0.
         12    1    1    2    0    0  0.33944151678E+02 -0.22249959648E+02  0.24285452801E+01  0.40659119146E+02  0.00000000000E+00 0. -1.
         11    1    3    3    0    0 -0.28514631122E+00  0.13171837924E+01 -0.11053762075E+01  0.17430256404E+01  0.51100000000E-03 0.  1.
        -11    1    3    3    0    0 -0.19027237515E+02  0.13474497140E+02 -0.14735992745E+02  0.27581648302E+02  0.51100000000E-03 0. -1.
        -12    1    3    3    0    0 -0.14631767852E+02  0.74582787164E+01  0.13412823673E+02  0.21204206912E+02  0.00000000000E+00 0.  1.
</event>
<event>
 7    1  0.5972636E-013  0.5052886E+02  0.7816164E-02  0.1300439E+00
        -11   -1    0    0    0    0  0.00000000000E+00  0.00000000000E+00  0.45593999997E+02  0.45594000000E+02  0.51100000000E-03 0.  1.
         11   -1    0    0    0    0 -0.00000000000E+00 -0.00000000000E+00 -0.45593999997E+02  0.45594000000E+02  0.51100000000E-03 0. -1.
    9900012    2    1    2    0    0  0.28722120757E+02  0.15262162521E+02  0.24398193252E+02  0.50528860074E+02  0.30000000681E+02 0.  0.
         12    1    1    2    0    0 -0.28722120757E+02 -0.15262162521E+02 -0.24398193252E+02  0.40659139926E+02  0.00000000000E+00 0. -1.
         11    1    3    3    0    0  0.79319849774E+01  0.10117092388E+02 -0.17741147779E+01  0.12977651081E+02  0.51100000000E-03 0. -1.
        -11    1    3    3    0    0  0.73302224838E+01 -0.16689818781E+01  0.19790845587E+02  0.21170621896E+02  0.51100000000E-03 0.  1.
         12    1    3    3    0    0  0.13459913295E+02  0.68140520104E+01  0.63814624429E+01  0.16380587097E+02  0.00000000000E+00 0. -1.
</event>
<event>
 7    1  0.5972636E-013  0.5052887E+02  0.7816164E-02  0.1300439E+00
        -11   -1    0    0    0    0  0.00000000000E+00  0.00000000000E+00  0.45593999997E+02  0.45594000000E+02  0.51100000000E-03 0.  1.
         11   -1    0    0    0    0 -0.00000000000E+00 -0.00000000000E+00 -0.45593999997E+02  0.45594000000E+02  0.51100000000E-03 0. -1.
    9900012    2    1    2    0    0  0.37467362963E+02 -0.38950262511E+01  0.15303289793E+02  0.50528865782E+02  0.30000018031E+02 0.  0.
         12    1    1    2    0    0 -0.37467362963E+02  0.38950262511E+01 -0.15303289793E+02  0.40659134218E+02  0.00000000000E+00 0. -1.
         11    1    3    3    0    0  0.17037412902E+02  0.95875006444E+01  0.64674829931E+01  0.20591793111E+02  0.51100000000E-03 0.  1.
        -11    1    3    3    0    0  0.82130798541E+01 -0.96329463899E+01 -0.24165736950E+01  0.12887519758E+02  0.51100000000E-03 0. -1.
        -12    1    3    3    0    0  0.12216870206E+02 -0.38495805056E+01  0.11252380495E+02  0.17049552913E+02  0.00000000000E+00 0.  1.
</event>
<event>
 7    1  0.5972636E-013  0.5052886E+02  0.7816164E-02  0.1300439E+00
        -11   -1    0    0    0    0  0.00000000000E+00  0.00000000000E+00  0.45593999997E+02  0.45594000000E+02  0.51100000000E-03 0.  1.
         11   -1    0    0    0    0 -0.00000000000E+00 -0.00000000000E+00 -0.45593999997E+02  0.45594000000E+02  0.51100000000E-03 0. -1.
    9900012    2    1    2    0    0  0.38900126534E+02 -0.28943856233E+01  0.11470312822E+02  0.50528863404E+02  0.30000010803E+02 0.  0.
         12    1    1    2    0    0 -0.38900126534E+02  0.28943856233E+01 -0.11470312822E+02  0.40659136596E+02  0.00000000000E+00 0. -1.
         11    1    3    3    0    0  0.98640727292E+01 -0.33601367892E+01  0.78107002820E+01  0.13022960078E+02  0.51100000000E-03 0. -1.
        -11    1    3    3    0    0  0.46510037177E-01  0.11545387492E+01 -0.66351224213E+01  0.67349812704E+01  0.51100000000E-03 0.  1.
        -12    1    3    3    0    0  0.28989543768E+02 -0.68878758337E+00  0.10294734962E+02  0.30770922055E+02  0.00000000000E+00 0.  1.
</event>
<event>
 7    1  0.5972636E-013  0.5052886E+02  0.7816164E-02  0.1300439E+00
        -11   -1    0    0    0    0  0.00000000000E+00  0.00000000000E+00  0.45593999997E+02  0.45594000000E+02  0.51100000000E-03 0.  1.
         11   -1    0    0    0    0 -0.00000000000E+00 -0.00000000000E+00 -0.45593999997E+02  0.45594000000E+02  0.51100000000E-03 0. -1.
    9900012    2    1    2    0    0  0.10363143820E+02 -0.14601244944E+02  0.36504442156E+02  0.50528863254E+02  0.30000010348E+02 0.  0.
         12    1    1    2    0    0 -0.10363143820E+02  0.14601244944E+02 -0.36504442156E+02  0.40659136746E+02  0.00000000000E+00 0. -1.
         11    1    3    3    0    0  0.78423845341E+01 -0.15157532203E+02  0.61181472388E+01  0.18129685700E+02  0.51100000000E-03 0. -1.
        -11    1    3    3    0    0  0.58424208686E+01  0.31249550519E+01  0.14081634731E+02  0.15562508238E+02  0.51100000000E-03 0.  1.
         12    1    3    3    0    0 -0.33216615824E+01 -0.25686677924E+01  0.16304660186E+02  0.16836669317E+02  0.00000000000E+00 0. -1.
</event>
<event>
 7    1  0.5972636E-013  0.5052886E+02  0.7816164E-02  0.1300439E+00
        -11   -1    0    0    0    0  0.00000000000E+00  0.00000000000E+00  0.45593999997E+02  0.45594000000E+02  0.51100000000E-03 0.  1.
         11   -1    0    0    0    0 -0.00000000000E+00 -0.00000000000E+00 -0.45593999997E+02  0.45594000000E+02  0.51100000000E-03 0. -1.
    9900012    2    1    2    0    0 -0.13093223981E+02 -0.38031197090E+02  0.59465306476E+01  0.50528859662E+02  0.29999999429E+02 0.  0.
         12    1    1    2    0    0  0.13093223981E+02  0.38031197090E+02 -0.59465306476E+01  0.40659140338E+02  0.00000000000E+00 0. -1.
         11    1    3    3    0    0 -0.13475847025E+02 -0.94080445990E+01  0.84751589644E+01  0.18491567699E+02  0.51100000000E-03 0.  1.
        -11    1    3    3    0    0  0.30855992296E+01 -0.25039113309E+02  0.24338968066E+01  0.25345649959E+02  0.51100000000E-03 0. -1.
         12    1    3    3    0    0 -0.27029761855E+01 -0.35840391813E+01 -0.49625251234E+01  0.66916420043E+01  0.00000000000E+00 0. -1.
</event>
<event>
 7    1  0.5972636E-013  0.5052886E+02  0.7816164E-02  0.1300439E+00
        -11   -1    0    0    0    0  0.00000000000E+00  0.00000000000E+00  0.45593999997E+02  0.45594000000E+02  0.51100000000E-03 0.  1.
         11   -1    0    0    0    0 -0.00000000000E+00 -0.00000000000E+00 -0.45593999997E+02  0.45594000000E+02  0.51100000000E-03 0. -1.
    9900012    2    1    2    0    0  0.23179136335E+01  0.38671120948E+02 -0.12342497926E+02  0.50528861126E+02  0.30000003877E+02 0.  0.
         12    1    1    2    0    0 -0.23179136335E+01 -0.38671120948E+02  0.12342497926E+02  0.40659138874E+02  0.00000000000E+00 0. -1.
         11    1    3    3    0    0  0.36865679374E+01  0.66579057757E+00  0.53324642881E+01  0.65168424790E+01  0.51100000000E-03 0. -1.
        -11    1    3    3    0    0  0.14855187986E+01  0.36600103144E+02 -0.14161921190E+02  0.39272564575E+02  0.51100000000E-03 0.  1.
         12    1    3    3    0    0 -0.28541731025E+01  0.14052272260E+01 -0.35130410245E+01  0.47394540715E+01  0.00000000000E+00 0. -1.
</event>
<event>
 7    1  0.5972636E-013  0.5052886E+02  0.7816164E-02  0.1300439E+00
        -11   -1    0    0    0    0  0.00000000000E+00  0.00000000000E+00  0.45593999997E+02  0.45594000000E+02  0.51100000000E-03 0. -1.
         11   -1    0    0    0    0 -0.00000000000E+00 -0.00000000000E+00 -0.45593999997E+02  0.45594000000E+02  0.51100000000E-03 0.  1.
    9900012    2    1    2    0    0 -0.10531480317E+02 -0.14834719728E+02 -0.36361855104E+02  0.50528862113E+02  0.30000006879E+02 0.  0.
         12    1    1    2    0    0  0.10531480317E+02  0.14834719728E+02  0.36361855104E+02  0.40659137887E+02  0.00000000000E+00 0. -1.
         11    1    3    3    0    0  0.42771129615E+01 -0.39941546262E+01 -0.17308721764E+01  0.61026949142E+01  0.51100000000E-03 0.  1.
        -11    1    3    3    0    0 -0.19541090094E+02 -0.47578454567E+01 -0.25532659855E+02  0.32502430909E+02  0.51100000000E-03 0. -1.
         12    1    3    3    0    0  0.47324968152E+01 -0.60827196447E+01 -0.90983230727E+01  0.11923736290E+02  0.00000000000E+00 0. -1.
</event>
<event>
 7    1  0.5972636E-013  0.5052885E+02  0.7816164E-02  0.1300439E+00
        -11   -1    0    0    0    0  0.00000000000E+00  0.00000000000E+00  0.45593999997E+02  0.45594000000E+02  0.51100000000E-03 0. -1.
         11   -1    0    0    0    0 -0.00000000000E+00 -0.00000000000E+00 -0.45593999997E+02  0.45594000000E+02  0.51100000000E-03 0.  1.
    9900012    2    1    2    0    0  0.39684353677E+02  0.76748267291E+01 -0.44062817444E+01  0.50528853293E+02  0.29999980070E+02 0.  0.
         12    1    1    2    0    0 -0.39684353677E+02 -0.76748267291E+01  0.44062817444E+01  0.40659146707E+02  0.00000000000E+00 0. -1.
         11    1    3    3    0    0  0.93493408328E+01  0.22750231906E+00  0.11405717324E+02  0.14749654886E+02  0.51100000000E-03 0. -1.
        -11    1    3    3    0    0  0.57902968395E+01  0.19948676164E+01 -0.65948497961E+01  0.89999487993E+01  0.51100000000E-03 0.  1.
         12    1    3    3    0    0  0.24544716005E+02  0.54524567936E+01 -0.92171492726E+01  0.26779249608E+02  0.00000000000E+00 0. -1.
</event>
<event>
 7    1  0.5972636E-013  0.5052886E+02  0.7816164E-02  0.1300439E+00
        -11   -1    0    0    0    0  0.00000000000E+00  0.00000000000E+00  0.45593999997E+02  0.45594000000E+02  0.51100000000E-03 0.  1.
         11   -1    0    0    0    0 -0.00000000000E+00 -0.00000000000E+00 -0.45593999997E+02  0.45594000000E+02  0.51100000000E-03 0. -1.
    9900012    2    1    2    0    0  0.16976115835E+02  0.31102979402E+02 -0.19939451391E+02  0.50528861319E+02  0.30000004464E+02 0.  0.
         12    1    1    2    0    0 -0.16976115835E+02 -0.31102979402E+02  0.19939451391E+02  0.40659138681E+02  0.00000000000E+00 0. -1.
         11    1    3    3    0    0  0.29470440398E+01  0.13049344613E+02 -0.19282548510E+02  0.23468854695E+02  0.51100000000E-03 0. -1.
        -11    1    3    3    0    0  0.16299258992E+02  0.14764917319E+02 -0.33428296464E+01  0.22245069958E+02  0.51100000000E-03 0.  1.
         12    1    3    3    0    0 -0.22701871966E+01  0.32887174699E+01  0.26859267652E+01  0.48149366654E+01  0.00000000000E+00 0. -1.
</event>
<event>
 7    1  0.5972636E-013  0.5052885E+02  0.7816164E-02  0.1300439E+00
        -11   -1    0    0    0    0  0.00000000000E+00  0.00000000000E+00  0.45593999997E+02  0.45594000000E+02  0.51100000000E-03 0. -1.
         11   -1    0    0    0    0 -0.00000000000E+00 -0.00000000000E+00 -0.45593999997E+02  0.45594000000E+02  0.51100000000E-03 0.  1.
    9900012    2    1    2    0    0 -0.18887520885E+01  0.31588042717E+02 -0.25530265993E+02  0.50528852090E+02  0.29999976411E+02 0.  0.
         12    1    1    2    0    0  0.18887520885E+01 -0.31588042717E+02  0.25530265993E+02  0.40659147910E+02  0.00000000000E+00 0. -1.
         11    1    3    3    0    0  0.58842040126E+01  0.20920711941E+01 -0.16811340251E+01  0.64673665904E+01  0.51100000000E-03 0. -1.
        -11    1    3    3    0    0 -0.11998483948E+02  0.86405487219E+01 -0.14855758881E+02  0.20959872887E+02  0.51100000000E-03 0.  1.
        -12    1    3    3    0    0  0.42255278467E+01  0.20855422801E+02 -0.89933730871E+01  0.23101612612E+02  0.00000000000E+00 0.  1.
</event>
<event>
 7    1  0.5972636E-013  0.5052885E+02  0.7816164E-02  0.1300439E+00
        -11   -1    0    0    0    0  0.00000000000E+00  0.00000000000E+00  0.45593999997E+02  0.45594000000E+02  0.51100000000E-03 0. -1.
         11   -1    0    0    0    0 -0.00000000000E+00 -0.00000000000E+00 -0.45593999997E+02  0.45594000000E+02  0.51100000000E-03 0.  1.
    9900012    2    1    2    0    0 -0.27614602864E+02  0.26025324984E+02 -0.14604185758E+02  0.50528854983E+02  0.29999985206E+02 0.  0.
         12    1    1    2    0    0  0.27614602864E+02 -0.26025324984E+02  0.14604185758E+02  0.40659145017E+02  0.00000000000E+00 0. -1.
         11    1    3    3    0    0 -0.40918858578E+01 -0.52193319329E+01  0.54704212019E+00  0.66546383103E+01  0.51100000000E-03 0. -1.
        -11    1    3    3    0    0 -0.70200193194E+01  0.12915738941E+02  0.42059983158E+00  0.14706253368E+02  0.51100000000E-03 0.  1.
         12    1    3    3    0    0 -0.16502697687E+02  0.18328917976E+02 -0.15571827710E+02  0.29167963305E+02  0.00000000000E+00 0. -1.
</event>
<event>
 7    1  0.5972636E-013  0.5052886E+02  0.7816164E-02  0.1300439E+00
        -11   -1    0    0    0    0  0.00000000000E+00  0.00000000000E+00  0.45593999997E+02  0.45594000000E+02  0.51100000000E-03 0. -1.
         11   -1    0    0    0    0 -0.00000000000E+00 -0.00000000000E+00 -0.45593999997E+02  0.45594000000E+02  0.51100000000E-03 0.  1.
    9900012    2    1    2    0    0  0.25069360819E+01 -0.38752561579E+02 -0.12046581856E+02  0.50528857217E+02  0.29999991996E+02 0.  0.
         12    1    1    2    0    0 -0.25069360819E+01  0.38752561579E+02  0.12046581856E+02  0.40659142783E+02  0.00000000000E+00 0. -1.
         11    1    3    3    0    0  0.73775460175E+01 -0.29303143068E+01 -0.10240993422E+02  0.12957348251E+02  0.51100000000E-03 0. -1.
        -11    1    3    3    0    0 -0.37578063508E+01 -0.21039367897E+02 -0.59375087755E+01  0.22181751978E+02  0.51100000000E-03 0.  1.
         12    1    3    3    0    0 -0.11128035848E+01 -0.14782879375E+02  0.41319203409E+01  0.15389756988E+02  0.00000000000E+00 0. -1.
</event>
<event>
 7    1  0.5972636E-013  0.5052886E+02  0.7816164E-02  0.1300439E+00
        -11   -1    0    0    0    0  0.00000000000E+00  0.00000000000E+00  0.45593999997E+02  0.45594000000E+02  0.51100000000E-03 0.  1.
         11   -1    0    0    0    0 -0.00000000000E+00 -0.00000000000E+00 -0.45593999997E+02  0.45594000000E+02  0.51100000000E-03 0. -1.
    9900012    2    1    2    0    0 -0.90799633777E+01 -0.13241523539E+02  0.37354811972E+02  0.50528860092E+02  0.30000000737E+02 0.  0.
         12    1    1    2    0    0  0.90799633777E+01  0.13241523539E+02 -0.37354811972E+02  0.40659139908E+02  0.00000000000E+00 0. -1.
         11    1    3    3    0    0  0.31941904164E+01 -0.31970868304E+01  0.19370378824E+02  0.19890595584E+02  0.51100000000E-03 0. -1.
        -11    1    3    3    0    0 -0.13853246463E+02 -0.17867827654E+01  0.43672366911E+01  0.14634814204E+02  0.51100000000E-03 0.  1.
        -12    1    3    3    0    0  0.15790926692E+01 -0.82576539433E+01  0.13617196457E+02  0.16003450304E+02  0.00000000000E+00 0.  1.
</event>
<event>
 7    1  0.5972636E-013  0.5052886E+02  0.7816164E-02  0.1300439E+00
        -11   -1    0    0    0    0  0.00000000000E+00  0.00000000000E+00  0.45593999997E+02  0.45594000000E+02  0.51100000000E-03 0.  1.
         11   -1    0    0    0    0 -0.00000000000E+00 -0.00000000000E+00 -0.45593999997E+02  0.45594000000E+02  0.51100000000E-03 0. -1.
    9900012    2    1    2    0    0  0.83411961003E+01 -0.25316688350E+02  0.30702694070E+02  0.50528859766E+02  0.29999999746E+02 0.  0.
         12    1    1    2    0    0 -0.83411961003E+01  0.25316688350E+02 -0.30702694070E+02  0.40659140234E+02  0.00000000000E+00 0. -1.
         11    1    3    3    0    0  0.69170739704E+01  0.45958191467E+01  0.45066760742E+01  0.94486822066E+01  0.51100000000E-03 0. -1.
        -11    1    3    3    0    0  0.10334783238E+01 -0.28356396906E+02  0.27101158319E+02  0.39238069593E+02  0.51100000000E-03 0.  1.
         12    1    3    3    0    0  0.39064380601E+00 -0.15561105911E+01 -0.90514032341E+00  0.18421079664E+01  0.00000000000E+00 0. -1.
</event>
<event>
 7    1  0.5972636E-013  0.5052877E+02  0.7816164E-02  0.1300439E+00
        -11   -1    0    0    0    0  0.00000000000E+00  0.00000000000E+00  0.45593999997E+02  0.45594000000E+02  0.51100000000E-03 0.  1.
         11   -1    0    0    0    0 -0.00000000000E+00 -0.00000000000E+00 -0.45593999997E+02  0.45594000000E+02  0.51100000000E-03 0. -1.
    9900012    2    1    2    0    0  0.36071780831E+02 -0.13142500349E+02  0.13389349742E+02  0.50528765203E+02  0.29999712311E+02 0.  0.
         12    1    1    2    0    0 -0.36071780831E+02  0.13142500349E+02 -0.13389349742E+02  0.40659234797E+02  0.00000000000E+00 0. -1.
         11    1    3    3    0    0  0.18190327294E+00 -0.24895596422E+01  0.45389008527E+01  0.51800209676E+01  0.51100000000E-03 0. -1.
        -11    1    3    3    0    0  0.23017529995E+02  0.28540656258E+01 -0.27838342691E+01  0.23360267789E+02  0.51100000000E-03 0.  1.
        -12    1    3    3    0    0  0.12872347563E+02 -0.13507006333E+02  0.11634283158E+02  0.21988476447E+02  0.00000000000E+00 0.  1.
</event>
<event>
 7    1  0.5972636E-013  0.5052886E+02  0.7816164E-02  0.1300439E+00
        -11   -1    0    0    0    0  0.00000000000E+00  0.00000000000E+00  0.45593999997E+02  0.45594000000E+02  0.51100000000E-03 0.  1.
         11   -1    0    0    0    0 -0.00000000000E+00 -0.00000000000E+00 -0.45593999997E+02  0.45594000000E+02  0.51100000000E-03 0. -1.
    9900012    2    1    2    0    0 -0.19421879362E+02  0.20095000782E+01  0.35663961317E+02  0.50528860494E+02  0.30000001958E+02 0.  0.
         12    1    1    2    0    0  0.19421879362E+02 -0.20095000782E+01 -0.35663961317E+02  0.40659139506E+02  0.00000000000E+00 0. -1.
         11    1    3    3    0    0 -0.23523277625E+01  0.92149455924E+01  0.28752992956E+02  0.30285033802E+02  0.51100000000E-03 0. -1.
        -11    1    3    3    0    0 -0.15308756845E+02 -0.50720728169E+01  0.50098421162E+01  0.16887346657E+02  0.51100000000E-03 0.  1.
         12    1    3    3    0    0 -0.17607947538E+01 -0.21333726973E+01  0.19011262450E+01  0.33564800357E+01  0.00000000000E+00 0. -1.
</event>
<event>
 7    1  0.5972636E-013  0.5052886E+02  0.7816164E-02  0.1300439E+00
        -11   -1    0    0    0    0  0.00000000000E+00  0.00000000000E+00  0.45593999997E+02  0.45594000000E+02  0.51100000000E-03 0.  1.
         11   -1    0    0    0    0 -0.00000000000E+00 -0.00000000000E+00 -0.45593999997E+02  0.45594000000E+02  0.51100000000E-03 0. -1.
    9900012    2    1    2    0    0 -0.29868225161E+02 -0.21420104467E+02  0.17384875719E+02  0.50528860149E+02  0.30000000909E+02 0.  0.
         12    1    1    2    0    0  0.29868225161E+02  0.21420104467E+02 -0.17384875719E+02  0.40659139851E+02  0.00000000000E+00 0. -1.
         11    1    3    3    0    0 -0.62570731516E+01 -0.33315335427E+00 -0.37770901835E+01  0.73163082287E+01  0.51100000000E-03 0. -1.
        -11    1    3    3    0    0 -0.13181833011E+02 -0.15920017850E+02  0.23547036907E+02  0.31331623597E+02  0.51100000000E-03 0.  1.
        -12    1    3    3    0    0 -0.10429318999E+02 -0.51669332631E+01 -0.23850710051E+01  0.11880928323E+02  0.00000000000E+00 0.  1.
</event>
<event>
 7    1  0.5972636E-013  0.5052880E+02  0.7816164E-02  0.1300439E+00
        -11   -1    0    0    0    0  0.00000000000E+00  0.00000000000E+00  0.45593999997E+02  0.45594000000E+02  0.51100000000E-03 0. -1.
         11   -1    0    0    0    0 -0.00000000000E+00 -0.00000000000E+00 -0.45593999997E+02  0.45594000000E+02  0.51100000000E-03 0.  1.
    9900012    2    1    2    0    0 -0.86449554092E+01  0.95305086491E+01 -0.38569477830E+02  0.50528800928E+02  0.29999820899E+02 0.  0.
         12    1    1    2    0    0  0.86449554092E+01 -0.95305086491E+01  0.38569477830E+02  0.40659199072E+02  0.00000000000E+00 0. -1.
         11    1    3    3    0    0  0.36516026692E+00 -0.31030207492E+01  0.77497572108E+00  0.32191097247E+01  0.51100000000E-03 0. -1.
        -11    1    3    3    0    0 -0.50021961462E+01  0.17167097373E+02 -0.19027989879E+02  0.26111215935E+02  0.51100000000E-03 0.  1.
        -12    1    3    3    0    0 -0.40079195300E+01 -0.45335679751E+01 -0.20316463672E+02  0.21198475268E+02  0.00000000000E+00 0.  1.
</event>
<event>
 7    1  0.5972636E-013  0.5052889E+02  0.7816164E-02  0.1300439E+00
        -11   -1    0    0    0    0  0.00000000000E+00  0.00000000000E+00  0.45593999997E+02  0.45594000000E+02  0.51100000000E-03 0. -1.
         11   -1    0    0    0    0 -0.00000000000E+00 -0.00000000000E+00 -0.45593999997E+02  0.45594000000E+02  0.51100000000E-03 0.  1.
    9900012    2    1    2    0    0  0.26621228209E+02 -0.26276571775E+02 -0.15937855200E+02  0.50528889779E+02  0.30000090971E+02 0.  0.
         12    1    1    2    0    0 -0.26621228209E+02  0.26276571775E+02  0.15937855200E+02  0.40659110221E+02  0.00000000000E+00 0. -1.
         11    1    3    3    0    0 -0.87142411772E+00 -0.22912604058E+01  0.62381418453E+01  0.67025120800E+01  0.51100000000E-03 0. -1.
        -11    1    3    3    0    0  0.47110451010E+01 -0.73017490257E+01 -0.94989549343E+01  0.12873990441E+02  0.51100000000E-03 0.  1.
        -12    1    3    3    0    0  0.22781607226E+02 -0.16683562344E+02 -0.12677042111E+02  0.30952387257E+02  0.00000000000E+00 0.  1.
</event>
<event>
 7    1  0.5972636E-013  0.5052886E+02  0.7816164E-02  0.1300439E+00
        -11   -1    0    0    0    0  0.00000000000E+00  0.00000000000E+00  0.45593999997E+02  0.45594000000E+02  0.51100000000E-03 0. -1.
         11   -1    0    0    0    0 -0.00000000000E+00 -0.00000000000E+00 -0.45593999997E+02  0.45594000000E+02  0.51100000000E-03 0.  1.
    9900012    2    1    2    0    0  0.19520702170E+02  0.34278377022E+02 -0.98539817827E+01  0.50528857099E+02  0.29999991638E+02 0.  0.
         12    1    1    2    0    0 -0.19520702170E+02 -0.34278377022E+02  0.98539817827E+01  0.40659142901E+02  0.00000000000E+00 0. -1.
         11    1    3    3    0    0  0.23601656314E+01  0.14237472295E+02  0.52786428174E+01  0.15366849691E+02  0.51100000000E-03 0. -1.
        -11    1    3    3    0    0  0.62412057591E+01  0.15279860421E+02 -0.16294310162E+02  0.23193346627E+02  0.51100000000E-03 0.  1.
        -12    1    3    3    0    0  0.10919330780E+02  0.47610443057E+01  0.11616855623E+01  0.11968660782E+02  0.00000000000E+00 0.  1.
</event>
<event>
 7    1  0.5972636E-013  0.5052886E+02  0.7816164E-02  0.1300439E+00
        -11   -1    0    0    0    0  0.00000000000E+00  0.00000000000E+00  0.45593999997E+02  0.45594000000E+02  0.51100000000E-03 0.  1.
         11   -1    0    0    0    0 -0.00000000000E+00 -0.00000000000E+00 -0.45593999997E+02  0.45594000000E+02  0.51100000000E-03 0. -1.
    9900012    2    1    2    0    0 -0.55945598546E+01  0.35623585305E+02  0.18783688355E+02  0.50528857385E+02  0.29999992507E+02 0.  0.
         12    1    1    2    0    0  0.55945598546E+01 -0.35623585305E+02 -0.18783688355E+02  0.40659142615E+02  0.00000000000E+00 0. -1.
         11    1    3    3    0    0 -0.30073595845E+01  0.22587660382E+02  0.51330878342E+01  0.23357979454E+02  0.51100000000E-03 0. -1.
        -11    1    3    3    0    0  0.10312660311E+01 -0.43169943976E+01  0.68969956030E+01  0.82017375516E+01  0.51100000000E-03 0.  1.
        -12    1    3    3    0    0 -0.36184663012E+01  0.17352919321E+02  0.67536049181E+01  0.18969140380E+02  0.00000000000E+00 0.  1.
</event>
<event>
 7    1  0.5972636E-013  0.5052882E+02  0.7816164E-02  0.1300439E+00
        -11   -1    0    0    0    0  0.00000000000E+00  0.00000000000E+00  0.45593999997E+02  0.45594000000E+02  0.51100000000E-03 0. -1.
         11   -1    0    0    0    0 -0.00000000000E+00 -0.00000000000E+00 -0.45593999997E+02  0.45594000000E+02  0.51100000000E-03 0.  1.
    9900012    2    1    2    0    0 -0.12039725865E+02  0.11069997402E+02 -0.37224575296E+02  0.50528820872E+02  0.29999881523E+02 0.  0.
         12    1    1    2    0    0  0.12039725865E+02 -0.11069997402E+02  0.37224575296E+02  0.40659179128E+02  0.00000000000E+00 0. -1.
         11    1    3    3    0    0  0.26495379015E+01 -0.19676755329E+01 -0.37237320805E+01  0.49757390368E+01  0.51100000000E-03 0. -1.
        -11    1    3    3    0    0 -0.17693750326E+02  0.10475278830E+02 -0.35577100915E+02  0.41091731248E+02  0.51100000000E-03 0.  1.
        -12    1    3    3    0    0  0.30044865588E+01  0.25623941051E+01  0.20762576998E+01  0.44613505878E+01  0.00000000000E+00 0.  1.
</event>
<event>
 7    1  0.5972636E-013  0.5052886E+02  0.7816164E-02  0.1300439E+00
        -11   -1    0    0    0    0  0.00000000000E+00  0.00000000000E+00  0.45593999997E+02  0.45594000000E+02  0.51100000000E-03 0. -1.
         11   -1    0    0    0    0 -0.00000000000E+00 -0.00000000000E+00 -0.45593999997E+02  0.45594000000E+02  0.51100000000E-03 0.  1.
    9900012    2    1    2    0    0  0.27562341328E+02  0.28138430654E+02 -0.10085214335E+02  0.50528862192E+02  0.30000007118E+02 0.  0.
         12    1    1    2    0    0 -0.27562341328E+02 -0.28138430654E+02  0.10085214335E+02  0.40659137808E+02  0.00000000000E+00 0. -1.
         11    1    3    3    0    0  0.20064505855E+00  0.12166892380E+02  0.50890436840E+00  0.12179183575E+02  0.51100000000E-03 0. -1.
        -11    1    3    3    0    0  0.13242092135E+02 -0.11349755387E+00  0.21853031956E+01  0.13421677844E+02  0.51100000000E-03 0.  1.
        -12    1    3    3    0    0  0.14119604134E+02  0.16085035827E+02 -0.12779421899E+02  0.24928000773E+02  0.00000000000E+00 0.  1.
</event>
<event>
 7    1  0.5972636E-013  0.5052888E+02  0.7816164E-02  0.1300439E+00
        -11   -1    0    0    0    0  0.00000000000E+00  0.00000000000E+00  0.45593999997E+02  0.45594000000E+02  0.51100000000E-03 0.  1.
         11   -1    0    0    0    0 -0.00000000000E+00 -0.00000000000E+00 -0.45593999997E+02  0.45594000000E+02  0.51100000000E-03 0. -1.
    9900012    2    1    2    0    0  0.31184479418E+02  0.20094588850E+02  0.16640295496E+02  0.50528884272E+02  0.30000074233E+02 0.  0.
         12    1    1    2    0    0 -0.31184479418E+02 -0.20094588850E+02 -0.16640295496E+02  0.40659115728E+02  0.00000000000E+00 0. -1.
         11    1    3    3    0    0  0.33618029249E+01 -0.39771993431E+01 -0.37775881297E+01  0.64335064980E+01  0.51100000000E-03 0. -1.
        -11    1    3    3    0    0  0.15067605861E+02  0.10050577483E+02  0.16988978941E+02  0.24832886660E+02  0.51100000000E-03 0.  1.
         12    1    3    3    0    0  0.12755070632E+02  0.14021210710E+02  0.34289046846E+01  0.19262491114E+02  0.00000000000E+00 0. -1.
</event>
<event>
 7    1  0.5972636E-013  0.5052886E+02  0.7816164E-02  0.1300439E+00
        -11   -1    0    0    0    0  0.00000000000E+00  0.00000000000E+00  0.45593999997E+02  0.45594000000E+02  0.51100000000E-03 0. -1.
         11   -1    0    0    0    0 -0.00000000000E+00 -0.00000000000E+00 -0.45593999997E+02  0.45594000000E+02  0.51100000000E-03 0.  1.
    9900012    2    1    2    0    0  0.30330512616E+02 -0.40020554784E+01 -0.26780764728E+02  0.50528858310E+02  0.29999995318E+02 0.  0.
         12    1    1    2    0    0 -0.30330512616E+02  0.40020554784E+01  0.26780764728E+02  0.40659141690E+02  0.00000000000E+00 0. -1.
         11    1    3    3    0    0  0.56032051393E+00  0.50968725659E+01  0.27237781613E+01  0.58061206295E+01  0.51100000000E-03 0. -1.
        -11    1    3    3    0    0  0.13771111774E+02 -0.10186319116E+01 -0.20359910398E+02  0.24600956935E+02  0.51100000000E-03 0.  1.
         12    1    3    3    0    0  0.15999080328E+02 -0.80802961327E+01 -0.91446324910E+01  0.20121780745E+02  0.00000000000E+00 0. -1.
</event>
<event>
 7    1  0.5972636E-013  0.5052887E+02  0.7816164E-02  0.1300439E+00
        -11   -1    0    0    0    0  0.00000000000E+00  0.00000000000E+00  0.45593999997E+02  0.45594000000E+02  0.51100000000E-03 0.  1.
         11   -1    0    0    0    0 -0.00000000000E+00 -0.00000000000E+00 -0.45593999997E+02  0.45594000000E+02  0.51100000000E-03 0. -1.
    9900012    2    1    2    0    0 -0.24391218501E+02  0.12194965729E+01  0.32507637429E+02  0.50528865687E+02  0.30000017743E+02 0.  0.
         12    1    1    2    0    0  0.24391218501E+02 -0.12194965729E+01 -0.32507637429E+02  0.40659134313E+02  0.00000000000E+00 0. -1.
         11    1    3    3    0    0 -0.53333478322E+01  0.62090466367E+01  0.83197242712E+01  0.11671104123E+02  0.51100000000E-03 0. -1.
        -11    1    3    3    0    0 -0.21207680164E+02 -0.24442960301E+01  0.87621284018E+01  0.23076290331E+02  0.51100000000E-03 0.  1.
        -12    1    3    3    0    0  0.21498094959E+01 -0.25452540337E+01  0.15425784756E+02  0.15781471234E+02  0.00000000000E+00 0.  1.
</event>
<event>
 7    1  0.5972636E-013  0.5052887E+02  0.7816164E-02  0.1300439E+00
        -11   -1    0    0    0    0  0.00000000000E+00  0.00000000000E+00  0.45593999997E+02  0.45594000000E+02  0.51100000000E-03 0.  1.
         11   -1    0    0    0    0 -0.00000000000E+00 -0.00000000000E+00 -0.45593999997E+02  0.45594000000E+02  0.51100000000E-03 0. -1.
    9900012    2    1    2    0    0 -0.36077570111E+02  0.11597917262E+02  0.14733040191E+02  0.50528865439E+02  0.30000016990E+02 0.  0.
         12    1    1    2    0    0  0.36077570111E+02 -0.11597917262E+02 -0.14733040191E+02  0.40659134561E+02  0.00000000000E+00 0. -1.
         11    1    3    3    0    0 -0.13148210091E+00  0.75181551459E+01  0.93910934068E+01  0.12030485442E+02  0.51100000000E-03 0. -1.
        -11    1    3    3    0    0 -0.33784752069E+02  0.66855759111E+01  0.62288259275E+01  0.34998638121E+02  0.51100000000E-03 0.  1.
         12    1    3    3    0    0 -0.21613359413E+01 -0.26058137949E+01 -0.88687914364E+00  0.34997418762E+01  0.00000000000E+00 0. -1.
</event>
<event>
 7    1  0.5972636E-013  0.5052886E+02  0.7816164E-02  0.1300439E+00
        -11   -1    0    0    0    0  0.00000000000E+00  0.00000000000E+00  0.45593999997E+02  0.45594000000E+02  0.51100000000E-03 0.  1.
         11   -1    0    0    0    0 -0.00000000000E+00 -0.00000000000E+00 -0.45593999997E+02  0.45594000000E+02  0.51100000000E-03 0. -1.
    9900012    2    1    2    0    0  0.13386507577E+02 -0.19121065881E+02  0.33291915253E+02  0.50528863674E+02  0.30000011624E+02 0.  0.
         12    1    1    2    0    0 -0.13386507577E+02  0.19121065881E+02 -0.33291915253E+02  0.40659136326E+02  0.00000000000E+00 0. -1.
         11    1    3    3    0    0  0.20112670101E+01  0.42302540110E+01  0.17114585330E+02  0.17743992653E+02  0.51100000000E-03 0. -1.
        -11    1    3    3    0    0  0.93453814436E+01 -0.62434854356E+01  0.73291776287E+01  0.13417678998E+02  0.51100000000E-03 0.  1.
         12    1    3    3    0    0  0.20298591229E+01 -0.17107834457E+02  0.88481522950E+01  0.19367192024E+02  0.00000000000E+00 0. -1.
</event>
<event>
 7    1  0.5972636E-013  0.5052886E+02  0.7816164E-02  0.1300439E+00
        -11   -1    0    0    0    0  0.00000000000E+00  0.00000000000E+00  0.45593999997E+02  0.45594000000E+02  0.51100000000E-03 0.  1.
         11   -1    0    0    0    0 -0.00000000000E+00 -0.00000000000E+00 -0.45593999997E+02  0.45594000000E+02  0.51100000000E-03 0. -1.
    9900012    2    1    2    0    0 -0.57909860968E+01 -0.38354783262E+02  0.12187727465E+02  0.50528860562E+02  0.30000002164E+02 0.  0.
         12    1    1    2    0    0  0.57909860968E+01  0.38354783262E+02 -0.12187727465E+02  0.40659139438E+02  0.00000000000E+00 0. -1.
         11    1    3    3    0    0  0.26110126491E+00 -0.28660112731E+01 -0.80865508115E+01  0.85833850419E+01  0.51100000000E-03 0. -1.
        -11    1    3    3    0    0 -0.12142803613E+00 -0.13226223812E+02  0.10631821378E+02  0.16970072692E+02  0.51100000000E-03 0.  1.
         12    1    3    3    0    0 -0.59306593256E+01 -0.22262548177E+02  0.96424568992E+01  0.24975402828E+02  0.00000000000E+00 0. -1.
</event>
<event>
 7    1  0.5972636E-013  0.5052885E+02  0.7816164E-02  0.1300439E+00
        -11   -1    0    0    0    0  0.00000000000E+00  0.00000000000E+00  0.45593999997E+02  0.45594000000E+02  0.51100000000E-03 0.  1.
         11   -1    0    0    0    0 -0.00000000000E+00 -0.00000000000E+00 -0.45593999997E+02  0.45594000000E+02  0.51100000000E-03 0. -1.
    9900012    2    1    2    0    0 -0.32682397476E+02  0.15582947916E+01  0.24137092420E+02  0.50528848288E+02  0.29999964857E+02 0.  0.
         12    1    1    2    0    0  0.32682397476E+02 -0.15582947916E+01 -0.24137092420E+02  0.40659151712E+02  0.00000000000E+00 0. -1.
         11    1    3    3    0    0 -0.26327640264E+02  0.43261334998E+01  0.14544889171E+02  0.30387725716E+02  0.51100000000E-03 0. -1.
        -11    1    3    3    0    0  0.99152953320E+00 -0.83964082744E+01  0.44790635063E+01  0.95679053549E+01  0.51100000000E-03 0.  1.
         12    1    3    3    0    0 -0.73462867447E+01  0.56285695663E+01  0.51131397427E+01  0.10573217217E+02  0.00000000000E+00 0. -1.
</event>
<event>
 7    1  0.5972636E-013  0.5052886E+02  0.7816164E-02  0.1300439E+00
        -11   -1    0    0    0    0  0.00000000000E+00  0.00000000000E+00  0.45593999997E+02  0.45594000000E+02  0.51100000000E-03 0.  1.
         11   -1    0    0    0    0 -0.00000000000E+00 -0.00000000000E+00 -0.45593999997E+02  0.45594000000E+02  0.51100000000E-03 0. -1.
    9900012    2    1    2    0    0  0.22845448079E+02  0.31794840933E+02  0.10969932905E+02  0.50528857906E+02  0.29999994092E+02 0.  0.
         12    1    1    2    0    0 -0.22845448079E+02 -0.31794840933E+02 -0.10969932905E+02  0.40659142094E+02  0.00000000000E+00 0. -1.
         11    1    3    3    0    0  0.10398364806E+02  0.13195169101E+02  0.18639313451E+02  0.25093076424E+02  0.51100000000E-03 0.  1.
        -11    1    3    3    0    0  0.47728104399E+01  0.22271313771E+01  0.10354527903E+01  0.53676807289E+01  0.51100000000E-03 0. -1.
         12    1    3    3    0    0  0.76742728327E+01  0.16372540454E+02 -0.87048333358E+01  0.20068100753E+02  0.00000000000E+00 0. -1.
</event>
<event>
 7    1  0.5972636E-013  0.5052887E+02  0.7816164E-02  0.1300439E+00
        -11   -1    0    0    0    0  0.00000000000E+00  0.00000000000E+00  0.45593999997E+02  0.45594000000E+02  0.51100000000E-03 0.  1.
         11   -1    0    0    0    0 -0.00000000000E+00 -0.00000000000E+00 -0.45593999997E+02  0.45594000000E+02  0.51100000000E-03 0. -1.
    9900012    2    1    2    0    0 -0.15521477611E+02 -0.12601421360E+02  0.35404135917E+02  0.50528869075E+02  0.30000028040E+02 0.  0.
         12    1    1    2    0    0  0.15521477611E+02  0.12601421360E+02 -0.35404135917E+02  0.40659130925E+02  0.00000000000E+00 0. -1.
         11    1    3    3    0    0  0.10215076327E+01  0.43678639999E+01 -0.21099726689E+01  0.49571865700E+01  0.51100000000E-03 0. -1.
        -11    1    3    3    0    0 -0.98072871945E+01 -0.99624155882E+01  0.30605534314E+02  0.33647159425E+02  0.51100000000E-03 0.  1.
        -12    1    3    3    0    0 -0.67356980491E+01 -0.70068697720E+01  0.69085742721E+01  0.11924523080E+02  0.00000000000E+00 0.  1.
</event>
<event>
 7    1  0.5972636E-013  0.5052886E+02  0.7816164E-02  0.1300439E+00
        -11   -1    0    0    0    0  0.00000000000E+00  0.00000000000E+00  0.45593999997E+02  0.45594000000E+02  0.51100000000E-03 0. -1.
         11   -1    0    0    0    0 -0.00000000000E+00 -0.00000000000E+00 -0.45593999997E+02  0.45594000000E+02  0.51100000000E-03 0.  1.
    9900012    2    1    2    0    0  0.40087458583E+02 -0.16729309317E+01 -0.65850561518E+01  0.50528855911E+02  0.29999988026E+02 0.  0.
         12    1    1    2    0    0 -0.40087458583E+02  0.16729309317E+01  0.65850561518E+01  0.40659144089E+02  0.00000000000E+00 0. -1.
         11    1    3    3    0    0  0.74487330238E+01  0.54412238993E+01  0.69240144503E+01  0.11533972323E+02  0.51100000000E-03 0. -1.
        -11    1    3    3    0    0  0.22150282352E+02 -0.91286085215E+01 -0.14917456666E+02  0.28222278708E+02  0.51100000000E-03 0.  1.
        -12    1    3    3    0    0  0.10488443207E+02  0.20144536905E+01  0.14083860643E+01  0.10772604880E+02  0.00000000000E+00 0.  1.
</event>
<event>
 7    1  0.5972636E-013  0.5052886E+02  0.7816164E-02  0.1300439E+00
        -11   -1    0    0    0    0  0.00000000000E+00  0.00000000000E+00  0.45593999997E+02  0.45594000000E+02  0.51100000000E-03 0.  1.
         11   -1    0    0    0    0 -0.00000000000E+00 -0.00000000000E+00 -0.45593999997E+02  0.45594000000E+02  0.51100000000E-03 0. -1.
    9900012    2    1    2    0    0 -0.14554019545E+02  0.21674661509E+02  0.31169778704E+02  0.50528861532E+02  0.30000005113E+02 0.  0.
         12    1    1    2    0    0  0.14554019545E+02 -0.21674661509E+02 -0.31169778704E+02  0.40659138468E+02  0.00000000000E+00 0. -1.
         11    1    3    3    0    0  0.12175108483E+01 -0.57433895071E+01  0.40200061659E+01  0.71154272908E+01  0.51100000000E-03 0. -1.
        -11    1    3    3    0    0 -0.93440639216E+01  0.24551309401E+02  0.24414214441E+02  0.35862685216E+02  0.51100000000E-03 0.  1.
        -12    1    3    3    0    0 -0.64274664721E+01  0.28667416158E+01  0.27355580976E+01  0.75507490255E+01  0.00000000000E+00 0.  1.
</event>
<event>
 7    1  0.5972636E-013  0.5052886E+02  0.7816164E-02  0.1300439E+00
        -11   -1    0    0    0    0  0.00000000000E+00  0.00000000000E+00  0.45593999997E+02  0.45594000000E+02  0.51100000000E-03 0.  1.
         11   -1    0    0    0    0 -0.00000000000E+00 -0.00000000000E+00 -0.45593999997E+02  0.45594000000E+02  0.51100000000E-03 0. -1.
    9900012    2    1    2    0    0 -0.13822306818E+02 -0.35616763770E+02  0.13912424029E+02  0.50528861180E+02  0.30000004042E+02 0.  0.
         12    1    1    2    0    0  0.13822306818E+02  0.35616763770E+02 -0.13912424029E+02  0.40659138820E+02  0.00000000000E+00 0. -1.
         11    1    3    3    0    0 -0.71817373782E+01 -0.54851045181E+01 -0.52827059345E+01  0.10467602667E+02  0.51100000000E-03 0. -1.
        -11    1    3    3    0    0 -0.93276250016E+01 -0.30319158080E+02  0.15032547037E+02  0.35103182271E+02  0.51100000000E-03 0.  1.
        -12    1    3    3    0    0  0.26870555621E+01  0.18749882747E+00  0.41625829259E+01  0.49580762418E+01  0.00000000000E+00 0.  1.
</event>
<event>
 7    1  0.5972636E-013  0.5052886E+02  0.7816164E-02  0.1300439E+00
        -11   -1    0    0    0    0  0.00000000000E+00  0.00000000000E+00  0.45593999997E+02  0.45594000000E+02  0.51100000000E-03 0. -1.
         11   -1    0    0    0    0 -0.00000000000E+00 -0.00000000000E+00 -0.45593999997E+02  0.45594000000E+02  0.51100000000E-03 0.  1.
    9900012    2    1    2    0    0 -0.19177276064E+02 -0.32687716135E+02 -0.14727898393E+02  0.50528859645E+02  0.29999999376E+02 0.  0.
         12    1    1    2    0    0  0.19177276064E+02  0.32687716135E+02  0.14727898393E+02  0.40659140355E+02  0.00000000000E+00 0. -1.
         11    1    3    3    0    0  0.20072085967E+01 -0.16818807222E+01  0.18389140540E-01  0.26187683243E+01  0.51100000000E-03 0. -1.
        -11    1    3    3    0    0 -0.18457171451E+02 -0.19940103166E+02 -0.21512212474E+02  0.34656170851E+02  0.51100000000E-03 0.  1.
        -12    1    3    3    0    0 -0.27273132093E+01 -0.11065732247E+02  0.67659249412E+01  0.13253920470E+02  0.00000000000E+00 0.  1.
</event>
<event>
 7    1  0.5972636E-013  0.5052886E+02  0.7816164E-02  0.1300439E+00
        -11   -1    0    0    0    0  0.00000000000E+00  0.00000000000E+00  0.45593999997E+02  0.45594000000E+02  0.51100000000E-03 0. -1.
         11   -1    0    0    0    0 -0.00000000000E+00 -0.00000000000E+00 -0.45593999997E+02  0.45594000000E+02  0.51100000000E-03 0.  1.
    9900012    2    1    2    0    0 -0.35903170400E+02  0.84684214291E+01 -0.17100109021E+02  0.50528861608E+02  0.30000005343E+02 0.  0.
         12    1    1    2    0    0  0.35903170400E+02 -0.84684214291E+01  0.17100109021E+02  0.40659138392E+02  0.00000000000E+00 0. -1.
         11    1    3    3    0    0 -0.55236254057E+01  0.17399351293E+01  0.68996864051E+01  0.90079678411E+01  0.51100000000E-03 0. -1.
        -11    1    3    3    0    0 -0.28699256049E+02  0.86489857036E+01 -0.17908210014E+02  0.34916417881E+02  0.51100000000E-03 0.  1.
        -12    1    3    3    0    0 -0.16802889454E+01 -0.19204994038E+01 -0.60915854115E+01  0.66044758857E+01  0.00000000000E+00 0.  1.
</event>
<event>
 7    1  0.5972636E-013  0.5052886E+02  0.7816164E-02  0.1300439E+00
        -11   -1    0    0    0    0  0.00000000000E+00  0.00000000000E+00  0.45593999997E+02  0.45594000000E+02  0.51100000000E-03 0. -1.
         11   -1    0    0    0    0 -0.00000000000E+00 -0.00000000000E+00 -0.45593999997E+02  0.45594000000E+02  0.51100000000E-03 0.  1.
    9900012    2    1    2    0    0  0.29566420593E+02  0.27288821144E+02 -0.58576962841E+01  0.50528860906E+02  0.30000003209E+02 0.  0.
         12    1    1    2    0    0 -0.29566420593E+02 -0.27288821144E+02  0.58576962841E+01  0.40659139094E+02  0.00000000000E+00 0. -1.
         11    1    3    3    0    0 -0.46621850582E+01  0.21977239964E+01  0.28002601622E+01  0.58657836235E+01  0.51100000000E-03 0. -1.
        -11    1    3    3    0    0  0.20734514316E+02  0.94971207692E+01 -0.75042298716E+01  0.24008932776E+02  0.51100000000E-03 0.  1.
        -12    1    3    3    0    0  0.13494091335E+02  0.15593976378E+02 -0.11537265747E+01  0.20654144506E+02  0.00000000000E+00 0.  1.
</event>
<event>
 7    1  0.5972636E-013  0.5052886E+02  0.7816164E-02  0.1300439E+00
        -11   -1    0    0    0    0  0.00000000000E+00  0.00000000000E+00  0.45593999997E+02  0.45594000000E+02  0.51100000000E-03 0.  1.
         11   -1    0    0    0    0 -0.00000000000E+00 -0.00000000000E+00 -0.45593999997E+02  0.45594000000E+02  0.51100000000E-03 0. -1.
    9900012    2    1    2    0    0 -0.38789818626E+02 -0.16370805527E+01  0.12076243214E+02  0.50528859430E+02  0.29999998722E+02 0.  0.
         12    1    1    2    0    0  0.38789818626E+02  0.16370805527E+01 -0.12076243214E+02  0.40659140570E+02  0.00000000000E+00 0. -1.
         11    1    3    3    0    0 -0.50411417141E+01  0.77764989392E+01  0.12236304019E+02  0.15349729048E+02  0.51100000000E-03 0. -1.
        -11    1    3    3    0    0 -0.13418785805E+02 -0.29135516959E+01  0.12541450008E+01  0.13788599490E+02  0.51100000000E-03 0.  1.
         12    1    3    3    0    0 -0.20329891107E+02 -0.65000277959E+01 -0.14142058057E+01  0.21390530892E+02  0.00000000000E+00 0. -1.
</event>
<event>
 7    1  0.5972636E-013  0.5052886E+02  0.7816164E-02  0.1300439E+00
        -11   -1    0    0    0    0  0.00000000000E+00  0.00000000000E+00  0.45593999997E+02  0.45594000000E+02  0.51100000000E-03 0. -1.
         11   -1    0    0    0    0 -0.00000000000E+00 -0.00000000000E+00 -0.45593999997E+02  0.45594000000E+02  0.51100000000E-03 0.  1.
    9900012    2    1    2    0    0 -0.40392121574E+02  0.45808283700E+01 -0.81134326351E+00  0.50528858941E+02  0.29999997236E+02 0.  0.
         12    1    1    2    0    0  0.40392121574E+02 -0.45808283700E+01  0.81134326351E+00  0.40659141059E+02  0.00000000000E+00 0. -1.
         11    1    3    3    0    0 -0.34188963531E+02  0.11649061288E+02  0.26478618338E+01  0.36215977534E+02  0.51100000000E-03 0. -1.
        -11    1    3    3    0    0  0.10829800673E+01 -0.57821463695E+01 -0.36292997307E+01  0.69121544587E+01  0.51100000000E-03 0.  1.
        -12    1    3    3    0    0 -0.72861381104E+01 -0.12860865484E+01  0.17009463339E+00  0.74007269480E+01  0.00000000000E+00 0.  1.
</event>
<event>
 7    1  0.5972636E-013  0.5052886E+02  0.7816164E-02  0.1300439E+00
        -11   -1    0    0    0    0  0.00000000000E+00  0.00000000000E+00  0.45593999997E+02  0.45594000000E+02  0.51100000000E-03 0.  1.
         11   -1    0    0    0    0 -0.00000000000E+00 -0.00000000000E+00 -0.45593999997E+02  0.45594000000E+02  0.51100000000E-03 0. -1.
    9900012    2    1    2    0    0  0.32875887716E+02 -0.17827370304E+02  0.15953879794E+02  0.50528863197E+02  0.30000010173E+02 0.  0.
         12    1    1    2    0    0 -0.32875887716E+02  0.17827370304E+02 -0.15953879794E+02  0.40659136803E+02  0.00000000000E+00 0. -1.
         11    1    3    3    0    0  0.31741543618E+00  0.27175278484E+01  0.39282557552E+01  0.47871602965E+01  0.51100000000E-03 0. -1.
        -11    1    3    3    0    0  0.29336614127E+02 -0.24938309761E+02  0.91290333797E+01  0.39571397156E+02  0.51100000000E-03 0.  1.
        -12    1    3    3    0    0  0.32218581533E+01  0.43934116091E+01  0.28965906593E+01  0.61703057440E+01  0.00000000000E+00 0.  1.
</event>
<event>
 7    1  0.5972636E-013  0.5052890E+02  0.7816164E-02  0.1300439E+00
        -11   -1    0    0    0    0  0.00000000000E+00  0.00000000000E+00  0.45593999997E+02  0.45594000000E+02  0.51100000000E-03 0.  1.
         11   -1    0    0    0    0 -0.00000000000E+00 -0.00000000000E+00 -0.45593999997E+02  0.45594000000E+02  0.51100000000E-03 0. -1.
    9900012    2    1    2    0    0  0.13322414651E+01 -0.67696591001E+01  0.40069431953E+02  0.50528898575E+02  0.30000117709E+02 0.  0.
         12    1    1    2    0    0 -0.13322414651E+01  0.67696591001E+01 -0.40069431953E+02  0.40659101425E+02  0.00000000000E+00 0. -1.
         11    1    3    3    0    0  0.16823534488E+01 -0.29171550719E+01 -0.36227812461E+01  0.49461753970E+01  0.51100000000E-03 0. -1.
        -11    1    3    3    0    0 -0.49495040170E+00  0.28831851707E+01  0.31642451422E+02  0.31777389208E+02  0.51100000000E-03 0.  1.
         12    1    3    3    0    0  0.14483841793E+00 -0.67356891989E+01  0.12049761777E+02  0.13805333970E+02  0.00000000000E+00 0. -1.
</event>
<event>
 7    1  0.5972636E-013  0.5052886E+02  0.7816164E-02  0.1300439E+00
        -11   -1    0    0    0    0  0.00000000000E+00  0.00000000000E+00  0.45593999997E+02  0.45594000000E+02  0.51100000000E-03 0. -1.
         11   -1    0    0    0    0 -0.00000000000E+00 -0.00000000000E+00 -0.45593999997E+02  0.45594000000E+02  0.51100000000E-03 0.  1.
    9900012    2    1    2    0    0  0.35636192774E+02 -0.86614856406E-01 -0.19576007127E+02  0.50528858437E+02  0.29999995706E+02 0.  0.
         12    1    1    2    0    0 -0.35636192774E+02  0.86614856406E-01  0.19576007127E+02  0.40659141563E+02  0.00000000000E+00 0. -1.
         11    1    3    3    0    0  0.14450595821E+02  0.77930524837E+01 -0.10312431505E+02  0.19388079596E+02  0.51100000000E-03 0. -1.
        -11    1    3    3    0    0  0.60882657109E+01 -0.11525860735E+02  0.41850896356E-01  0.13035113993E+02  0.51100000000E-03 0.  1.
        -12    1    3    3    0    0  0.15097331242E+02  0.36461933953E+01 -0.93054265182E+01  0.18105664848E+02  0.00000000000E+00 0.  1.
</event>
<event>
 7    1  0.5972636E-013  0.5052886E+02  0.7816164E-02  0.1300439E+00
        -11   -1    0    0    0    0  0.00000000000E+00  0.00000000000E+00  0.45593999997E+02  0.45594000000E+02  0.51100000000E-03 0.  1.
         11   -1    0    0    0    0 -0.00000000000E+00 -0.00000000000E+00 -0.45593999997E+02  0.45594000000E+02  0.51100000000E-03 0. -1.
    9900012    2    1    2    0    0 -0.29635190566E+02 -0.22294290359E+02  0.16669913284E+02  0.50528856977E+02  0.29999991266E+02 0.  0.
         12    1    1    2    0    0  0.29635190566E+02  0.22294290359E+02 -0.16669913284E+02  0.40659143023E+02  0.00000000000E+00 0. -1.
         11    1    3    3    0    0  0.67832390343E+00 -0.92598766547E+01 -0.13761614996E+01  0.93861205890E+01  0.51100000000E-03 0. -1.
        -11    1    3    3    0    0 -0.31705184442E+02 -0.14076325655E+02  0.18543142176E+02  0.39334587661E+02  0.51100000000E-03 0.  1.
        -12    1    3    3    0    0  0.13916699722E+01  0.10419119510E+01 -0.49706739196E+00  0.18081487266E+01  0.00000000000E+00 0.  1.
</event>
<event>
 7    1  0.5972636E-013  0.5052886E+02  0.7816164E-02  0.1300439E+00
        -11   -1    0    0    0    0  0.00000000000E+00  0.00000000000E+00  0.45593999997E+02  0.45594000000E+02  0.51100000000E-03 0. -1.
         11   -1    0    0    0    0 -0.00000000000E+00 -0.00000000000E+00 -0.45593999997E+02  0.45594000000E+02  0.51100000000E-03 0.  1.
    9900012    2    1    2    0    0  0.30456834593E+02  0.22974244852E+02 -0.14061687292E+02  0.50528858968E+02  0.29999997320E+02 0.  0.
         12    1    1    2    0    0 -0.30456834593E+02 -0.22974244852E+02  0.14061687292E+02  0.40659141032E+02  0.00000000000E+00 0. -1.
         11    1    3    3    0    0  0.25528748496E+02  0.83007021781E+01 -0.19813831233E+02  0.33364750333E+02  0.51100000000E-03 0.  1.
        -11    1    3    3    0    0  0.24762738284E+01  0.12740255958E+02  0.39865034542E+01  0.13577122818E+02  0.51100000000E-03 0. -1.
        -12    1    3    3    0    0  0.24518122689E+01  0.19332867153E+01  0.17656404867E+01  0.35869858174E+01  0.00000000000E+00 0.  1.
</event>
<event>
 7    1  0.5972636E-013  0.5052883E+02  0.7816164E-02  0.1300439E+00
        -11   -1    0    0    0    0  0.00000000000E+00  0.00000000000E+00  0.45593999997E+02  0.45594000000E+02  0.51100000000E-03 0. -1.
         11   -1    0    0    0    0 -0.00000000000E+00 -0.00000000000E+00 -0.45593999997E+02  0.45594000000E+02  0.51100000000E-03 0.  1.
    9900012    2    1    2    0    0  0.14359136197E+02 -0.65478863911E+01 -0.37471435962E+02  0.50528829797E+02  0.29999908651E+02 0.  0.
         12    1    1    2    0    0 -0.14359136197E+02  0.65478863911E+01  0.37471435962E+02  0.40659170203E+02  0.00000000000E+00 0. -1.
         11    1    3    3    0    0  0.41504621717E+01  0.72005025812E+01 -0.98223384687E+00  0.83688922356E+01  0.51100000000E-03 0. -1.
        -11    1    3    3    0    0  0.77881377591E+00 -0.19707108605E+01 -0.18762558550E+02  0.18881839312E+02  0.51100000000E-03 0.  1.
         12    1    3    3    0    0  0.94298602498E+01 -0.11777678112E+02 -0.17726643565E+02  0.23278098250E+02  0.00000000000E+00 0. -1.
</event>
<event>
 7    1  0.5972636E-013  0.5052886E+02  0.7816164E-02  0.1300439E+00
        -11   -1    0    0    0    0  0.00000000000E+00  0.00000000000E+00  0.45593999997E+02  0.45594000000E+02  0.51100000000E-03 0. -1.
         11   -1    0    0    0    0 -0.00000000000E+00 -0.00000000000E+00 -0.45593999997E+02  0.45594000000E+02  0.51100000000E-03 0.  1.
    9900012    2    1    2    0    0 -0.37604922629E+02 -0.70285524557E+01 -0.13770793279E+02  0.50528861998E+02  0.30000006528E+02 0.  0.
         12    1    1    2    0    0  0.37604922629E+02  0.70285524557E+01  0.13770793279E+02  0.40659138002E+02  0.00000000000E+00 0. -1.
         11    1    3    3    0    0 -0.16702140527E+02 -0.40674957905E+00  0.49676417992E+01  0.17429985907E+02  0.51100000000E-03 0. -1.
        -11    1    3    3    0    0 -0.15891146245E+02 -0.11808659899E+02 -0.15719967292E+02  0.25280236342E+02  0.51100000000E-03 0.  1.
         12    1    3    3    0    0 -0.50116358573E+01  0.51868570228E+01 -0.30184677859E+01  0.78186397484E+01  0.00000000000E+00 0. -1.
</event>
<event>
 7    1  0.5972636E-013  0.5052885E+02  0.7816164E-02  0.1300439E+00
        -11   -1    0    0    0    0  0.00000000000E+00  0.00000000000E+00  0.45593999997E+02  0.45594000000E+02  0.51100000000E-03 0.  1.
         11   -1    0    0    0    0 -0.00000000000E+00 -0.00000000000E+00 -0.45593999997E+02  0.45594000000E+02  0.51100000000E-03 0. -1.
    9900012    2    1    2    0    0  0.36230974975E+02  0.17286223030E+02  0.64551595660E+01  0.50528854174E+02  0.29999982747E+02 0.  0.
         12    1    1    2    0    0 -0.36230974975E+02 -0.17286223030E+02 -0.64551595660E+01  0.40659145826E+02  0.00000000000E+00 0. -1.
         11    1    3    3    0    0  0.17040459351E+02  0.14212434802E+02 -0.83336935550E+01  0.23702763688E+02  0.51100000000E-03 0. -1.
        -11    1    3    3    0    0 -0.11181003969E+01 -0.65774056534E+00  0.24486885604E+01  0.27710732714E+01  0.51100000000E-03 0.  1.
         12    1    3    3    0    0  0.20308616021E+02  0.37315287932E+01  0.12340164561E+02  0.24055017215E+02  0.00000000000E+00 0. -1.
</event>
<event>
 7    1  0.5972636E-013  0.5052886E+02  0.7816164E-02  0.1300439E+00
        -11   -1    0    0    0    0  0.00000000000E+00  0.00000000000E+00  0.45593999997E+02  0.45594000000E+02  0.51100000000E-03 0.  1.
         11   -1    0    0    0    0 -0.00000000000E+00 -0.00000000000E+00 -0.45593999997E+02  0.45594000000E+02  0.51100000000E-03 0. -1.
    9900012    2    1    2    0    0 -0.17960951621E+02  0.16241160565E+02  0.32661823282E+02  0.50528858596E+02  0.29999996187E+02 0.  0.
         12    1    1    2    0    0  0.17960951621E+02 -0.16241160565E+02 -0.32661823282E+02  0.40659141404E+02  0.00000000000E+00 0. -1.
         11    1    3    3    0    0  0.75956547685E+01  0.46624406383E+01  0.41019223405E+01  0.98111207931E+01  0.51100000000E-03 0. -1.
        -11    1    3    3    0    0 -0.91501250549E+01  0.54325165827E+01  0.62148664252E+01  0.12323213456E+02  0.51100000000E-03 0.  1.
         12    1    3    3    0    0 -0.16406481334E+02  0.61462033442E+01  0.22345034516E+02  0.28394524346E+02  0.00000000000E+00 0. -1.
</event>
<event>
 7    1  0.5972636E-013  0.5052884E+02  0.7816164E-02  0.1300439E+00
        -11   -1    0    0    0    0  0.00000000000E+00  0.00000000000E+00  0.45593999997E+02  0.45594000000E+02  0.51100000000E-03 0.  1.
         11   -1    0    0    0    0 -0.00000000000E+00 -0.00000000000E+00 -0.45593999997E+02  0.45594000000E+02  0.51100000000E-03 0. -1.
    9900012    2    1    2    0    0  0.93703442236E+01  0.15792583415E+02  0.36276140415E+02  0.50528838607E+02  0.29999935430E+02 0.  0.
         12    1    1    2    0    0 -0.93703442236E+01 -0.15792583415E+02 -0.36276140415E+02  0.40659161393E+02  0.00000000000E+00 0. -1.
         11    1    3    3    0    0 -0.44715187434E+01  0.87351469815E+01  0.19185896243E+02  0.21549846579E+02  0.51100000000E-03 0. -1.
        -11    1    3    3    0    0  0.13458005946E+02  0.12150991803E+02  0.11847893301E+02  0.21659572982E+02  0.51100000000E-03 0.  1.
        -12    1    3    3    0    0  0.38385702054E+00 -0.50935553694E+01  0.52423508706E+01  0.73194190455E+01  0.00000000000E+00 0.  1.
</event>
<event>
 7    1  0.5972636E-013  0.5052886E+02  0.7816164E-02  0.1300439E+00
        -11   -1    0    0    0    0  0.00000000000E+00  0.00000000000E+00  0.45593999997E+02  0.45594000000E+02  0.51100000000E-03 0. -1.
         11   -1    0    0    0    0 -0.00000000000E+00 -0.00000000000E+00 -0.45593999997E+02  0.45594000000E+02  0.51100000000E-03 0.  1.
    9900012    2    1    2    0    0  0.22958868195E+02  0.36414439961E+01 -0.33358593795E+02  0.50528861751E+02  0.30000005780E+02 0.  0.
         12    1    1    2    0    0 -0.22958868195E+02 -0.36414439961E+01  0.33358593795E+02  0.40659138249E+02  0.00000000000E+00 0. -1.
         11    1    3    3    0    0  0.67733234849E+01  0.73206266552E+01  0.30649342662E+01  0.10433758094E+02  0.51100000000E-03 0. -1.
        -11    1    3    3    0    0  0.11554734407E+02 -0.36928013222E+01 -0.26411027638E+02  0.29063569120E+02  0.51100000000E-03 0.  1.
         12    1    3    3    0    0  0.46308103027E+01  0.13618663045E-01 -0.10012500423E+02  0.11031534537E+02  0.00000000000E+00 0. -1.
</event>
<event>
 7    1  0.5972636E-013  0.5052884E+02  0.7816164E-02  0.1300439E+00
        -11   -1    0    0    0    0  0.00000000000E+00  0.00000000000E+00  0.45593999997E+02  0.45594000000E+02  0.51100000000E-03 0. -1.
         11   -1    0    0    0    0 -0.00000000000E+00 -0.00000000000E+00 -0.45593999997E+02  0.45594000000E+02  0.51100000000E-03 0.  1.
    9900012    2    1    2    0    0  0.15765994334E+02  0.32708566693E+02  0.18296189662E+02  0.50528837827E+02  0.29999933059E+02 0.  0.
         12    1    1    2    0    0 -0.15765994334E+02 -0.32708566693E+02 -0.18296189662E+02  0.40659162173E+02  0.00000000000E+00 0. -1.
         11    1    3    3    0    0  0.45494251296E+01  0.19477383386E+02  0.18344251955E+02  0.27139957860E+02  0.51100000000E-03 0. -1.
        -11    1    3    3    0    0  0.24061362239E+01  0.28714078261E+00 -0.61297136577E+01  0.65913072409E+01  0.51100000000E-03 0.  1.
         12    1    3    3    0    0  0.88104329810E+01  0.12944042524E+02  0.60816513650E+01  0.16797572726E+02  0.00000000000E+00 0. -1.
</event>
<event>
 7    1  0.5972636E-013  0.5052882E+02  0.7816164E-02  0.1300439E+00
        -11   -1    0    0    0    0  0.00000000000E+00  0.00000000000E+00  0.45593999997E+02  0.45594000000E+02  0.51100000000E-03 0.  1.
         11   -1    0    0    0    0 -0.00000000000E+00 -0.00000000000E+00 -0.45593999997E+02  0.45594000000E+02  0.51100000000E-03 0. -1.
    9900012    2    1    2    0    0 -0.74928245575E+01 -0.83064328657E+01  0.39090015365E+02  0.50528824553E+02  0.29999892711E+02 0.  0.
         12    1    1    2    0    0  0.74928245575E+01  0.83064328657E+01 -0.39090015365E+02  0.40659175447E+02  0.00000000000E+00 0. -1.
         11    1    3    3    0    0  0.33961749926E+01 -0.94761401395E+01  0.63905337269E+00  0.10086606268E+02  0.51100000000E-03 0. -1.
        -11    1    3    3    0    0 -0.86186929212E+01 -0.17668503231E+01  0.28156502731E+02  0.29499021578E+02  0.51100000000E-03 0.  1.
         12    1    3    3    0    0 -0.22703066288E+01  0.29365575968E+01  0.10294459261E+02  0.10943196708E+02  0.00000000000E+00 0. -1.
</event>
<event>
 7    1  0.5972636E-013  0.5052885E+02  0.7816164E-02  0.1300439E+00
        -11   -1    0    0    0    0  0.00000000000E+00  0.00000000000E+00  0.45593999997E+02  0.45594000000E+02  0.51100000000E-03 0. -1.
         11   -1    0    0    0    0 -0.00000000000E+00 -0.00000000000E+00 -0.45593999997E+02  0.45594000000E+02  0.51100000000E-03 0.  1.
    9900012    2    1    2    0    0 -0.37466070421E+02  0.14142755429E+02  0.70315283555E+01  0.50528851523E+02  0.29999974688E+02 0.  0.
         12    1    1    2    0    0  0.37466070421E+02 -0.14142755429E+02 -0.70315283555E+01  0.40659148477E+02  0.00000000000E+00 0. -1.
         11    1    3    3    0    0  0.29383381745E+01 -0.24625911805E+01 -0.65040725493E-01  0.38343731048E+01  0.51100000000E-03 0. -1.
        -11    1    3    3    0    0 -0.17998955601E+02  0.50018281091E+01  0.10180372250E+02  0.21274883468E+02  0.51100000000E-03 0.  1.
         12    1    3    3    0    0 -0.22405452994E+02  0.11603518500E+02 -0.30838031686E+01  0.25419594950E+02  0.00000000000E+00 0. -1.
</event>
<event>
 7    1  0.5972636E-013  0.5052886E+02  0.7816164E-02  0.1300439E+00
        -11   -1    0    0    0    0  0.00000000000E+00  0.00000000000E+00  0.45593999997E+02  0.45594000000E+02  0.51100000000E-03 0.  1.
         11   -1    0    0    0    0 -0.00000000000E+00 -0.00000000000E+00 -0.45593999997E+02  0.45594000000E+02  0.51100000000E-03 0. -1.
    9900012    2    1    2    0    0  0.75956477340E+01 -0.13620181545E+02  0.37549462140E+02  0.50528864289E+02  0.30000013492E+02 0.  0.
         12    1    1    2    0    0 -0.75956477340E+01  0.13620181545E+02 -0.37549462140E+02  0.40659135711E+02  0.00000000000E+00 0. -1.
         11    1    3    3    0    0  0.51923683121E+01  0.24548166529E+01  0.46319681478E+01  0.73784783439E+01  0.51100000000E-03 0. -1.
        -11    1    3    3    0    0  0.58599954978E+01 -0.16151603007E+02  0.35087349104E+02  0.39068349010E+02  0.51100000000E-03 0.  1.
        -12    1    3    3    0    0 -0.34567160758E+01  0.76604809236E-01 -0.21698551126E+01  0.40820369346E+01  0.00000000000E+00 0.  1.
</event>
<event>
 7    1  0.5972636E-013  0.5052886E+02  0.7816164E-02  0.1300439E+00
        -11   -1    0    0    0    0  0.00000000000E+00  0.00000000000E+00  0.45593999997E+02  0.45594000000E+02  0.51100000000E-03 0.  1.
         11   -1    0    0    0    0 -0.00000000000E+00 -0.00000000000E+00 -0.45593999997E+02  0.45594000000E+02  0.51100000000E-03 0. -1.
    9900012    2    1    2    0    0  0.50106781437E+01 -0.14778621766E+02  0.37545325451E+02  0.50528855641E+02  0.29999987207E+02 0.  0.
         12    1    1    2    0    0 -0.50106781437E+01  0.14778621766E+02 -0.37545325451E+02  0.40659144359E+02  0.00000000000E+00 0. -1.
         11    1    3    3    0    0  0.13373009508E+02 -0.77095678869E+01  0.74303784991E+01  0.17131413988E+02  0.51100000000E-03 0. -1.
        -11    1    3    3    0    0 -0.52517544129E+01  0.94829181102E+00  0.16027224887E+02  0.16892368680E+02  0.51100000000E-03 0.  1.
         12    1    3    3    0    0 -0.31105769519E+01 -0.80173456899E+01  0.14087722065E+02  0.16505072974E+02  0.00000000000E+00 0. -1.
</event>
<event>
 7    1  0.5972636E-013  0.5052886E+02  0.7816164E-02  0.1300439E+00
        -11   -1    0    0    0    0  0.00000000000E+00  0.00000000000E+00  0.45593999997E+02  0.45594000000E+02  0.51100000000E-03 0.  1.
         11   -1    0    0    0    0 -0.00000000000E+00 -0.00000000000E+00 -0.45593999997E+02  0.45594000000E+02  0.51100000000E-03 0. -1.
    9900012    2    1    2    0    0 -0.96454122654E+01 -0.23735268551E+02  0.31571640622E+02  0.50528862742E+02  0.30000008792E+02 0.  0.
         12    1    1    2    0    0  0.96454122654E+01  0.23735268551E+02 -0.31571640622E+02  0.40659137258E+02  0.00000000000E+00 0. -1.
         11    1    3    3    0    0 -0.11415879984E+02 -0.24448955376E+01  0.92291932585E+01  0.14882131516E+02  0.51100000000E-03 0. -1.
        -11    1    3    3    0    0 -0.21535332207E+01 -0.20889813131E+02  0.11144491096E+02  0.23774391265E+02  0.51100000000E-03 0.  1.
        -12    1    3    3    0    0  0.39240009390E+01 -0.40055988240E+00  0.11197956267E+02  0.11872339961E+02  0.00000000000E+00 0.  1.
</event>
<event>
 7    1  0.5972636E-013  0.5052885E+02  0.7816164E-02  0.1300439E+00
        -11   -1    0    0    0    0  0.00000000000E+00  0.00000000000E+00  0.45593999997E+02  0.45594000000E+02  0.51100000000E-03 0. -1.
         11   -1    0    0    0    0 -0.00000000000E+00 -0.00000000000E+00 -0.45593999997E+02  0.45594000000E+02  0.51100000000E-03 0.  1.
    9900012    2    1    2    0    0  0.34778833338E+02 -0.19307382075E+02 -0.84157325194E+01  0.50528845990E+02  0.29999957872E+02 0.  0.
         12    1    1    2    0    0 -0.34778833338E+02  0.19307382075E+02  0.84157325194E+01  0.40659154010E+02  0.00000000000E+00 0. -1.
         11    1    3    3    0    0 -0.89199493477E+00 -0.36143046039E+00 -0.85407314474E+00  0.12867510012E+01  0.51100000000E-03 0. -1.
        -11    1    3    3    0    0  0.36286559218E+02 -0.13759273880E+02  0.14405773263E+01  0.38834356707E+02  0.51100000000E-03 0.  1.
        -12    1    3    3    0    0 -0.61573094489E+00 -0.51866777354E+01 -0.90022367010E+01  0.10407738282E+02  0.00000000000E+00 0.  1.
</event>
<event>
 7    1  0.5972636E-013  0.5052886E+02  0.7816164E-02  0.1300439E+00
        -11   -1    0    0    0    0  0.00000000000E+00  0.00000000000E+00  0.45593999997E+02  0.45594000000E+02  0.51100000000E-03 0.  1.
         11   -1    0    0    0    0 -0.00000000000E+00 -0.00000000000E+00 -0.45593999997E+02  0.45594000000E+02  0.51100000000E-03 0. -1.
    9900012    2    1    2    0    0  0.95405165846E+01  0.36163006826E+02  0.15949333972E+02  0.50528858671E+02  0.29999996418E+02 0.  0.
         12    1    1    2    0    0 -0.95405165846E+01 -0.36163006826E+02 -0.15949333972E+02  0.40659141329E+02  0.00000000000E+00 0. -1.
         11    1    3    3    0    0  0.13791294972E+02  0.84891851541E+01  0.67340679791E+01  0.17538921101E+02  0.51100000000E-03 0. -1.
        -11    1    3    3    0    0 -0.11778981288E+01  0.24885130090E+02  0.12333989064E+02  0.27799000524E+02  0.51100000000E-03 0.  1.
         12    1    3    3    0    0 -0.30728802589E+01  0.27886915819E+01 -0.31187230714E+01  0.51909370465E+01  0.00000000000E+00 0. -1.
</event>
<event>
 7    1  0.5972636E-013  0.5052886E+02  0.7816164E-02  0.1300439E+00
        -11   -1    0    0    0    0  0.00000000000E+00  0.00000000000E+00  0.45593999997E+02  0.45594000000E+02  0.51100000000E-03 0.  1.
         11   -1    0    0    0    0 -0.00000000000E+00 -0.00000000000E+00 -0.45593999997E+02  0.45594000000E+02  0.51100000000E-03 0. -1.
    9900012    2    1    2    0    0 -0.35147638161E+02 -0.18018588996E+02  0.96508862433E+01  0.50528860524E+02  0.30000002048E+02 0.  0.
         12    1    1    2    0    0  0.35147638161E+02  0.18018588996E+02 -0.96508862433E+01  0.40659139476E+02  0.00000000000E+00 0. -1.
         11    1    3    3    0    0 -0.10342136113E+02 -0.99555109766E+01 -0.85816985489E+01  0.16724757949E+02  0.51100000000E-03 0. -1.
        -11    1    3    3    0    0 -0.12146543699E+02 -0.17834792424E+01  0.22690667475E+01  0.12484710097E+02  0.51100000000E-03 0.  1.
         12    1    3    3    0    0 -0.12658958348E+02 -0.62795987764E+01  0.15963518045E+02  0.21319392478E+02  0.00000000000E+00 0. -1.
</event>
<event>
 7    1  0.5972636E-013  0.5052886E+02  0.7816164E-02  0.1300439E+00
        -11   -1    0    0    0    0  0.00000000000E+00  0.00000000000E+00  0.45593999997E+02  0.45594000000E+02  0.51100000000E-03 0. -1.
         11   -1    0    0    0    0 -0.00000000000E+00 -0.00000000000E+00 -0.45593999997E+02  0.45594000000E+02  0.51100000000E-03 0.  1.
    9900012    2    1    2    0    0  0.37800866748E+02 -0.14737737007E+02 -0.26569214155E+01  0.50528860186E+02  0.30000001023E+02 0.  0.
         12    1    1    2    0    0 -0.37800866748E+02  0.14737737007E+02  0.26569214155E+01  0.40659139814E+02  0.00000000000E+00 0. -1.
         11    1    3    3    0    0  0.12117815608E+02  0.78606053873E+00  0.11256331879E+02  0.16557909105E+02  0.51100000000E-03 0. -1.
        -11    1    3    3    0    0  0.33266775429E+01 -0.92263241307E+00 -0.44706908014E+01  0.56484609007E+01  0.51100000000E-03 0.  1.
         12    1    3    3    0    0  0.22356373597E+02 -0.14601165132E+02 -0.94425624931E+01  0.28322490181E+02  0.00000000000E+00 0. -1.
</event>
<event>
 7    1  0.5972636E-013  0.5052886E+02  0.7816164E-02  0.1300439E+00
        -11   -1    0    0    0    0  0.00000000000E+00  0.00000000000E+00  0.45593999997E+02  0.45594000000E+02  0.51100000000E-03 0.  1.
         11   -1    0    0    0    0 -0.00000000000E+00 -0.00000000000E+00 -0.45593999997E+02  0.45594000000E+02  0.51100000000E-03 0. -1.
    9900012    2    1    2    0    0  0.12147281670E+02 -0.14877826340E+02  0.35836566826E+02  0.50528859694E+02  0.29999999525E+02 0.  0.
         12    1    1    2    0    0 -0.12147281670E+02  0.14877826340E+02 -0.35836566826E+02  0.40659140306E+02  0.00000000000E+00 0. -1.
         11    1    3    3    0    0 -0.47524571834E+01 -0.19902162008E+01 -0.26745226217E+01  0.58051598876E+01  0.51100000000E-03 0. -1.
        -11    1    3    3    0    0  0.88833049177E+01 -0.10700102487E+02  0.28509569970E+02  0.31720669596E+02  0.51100000000E-03 0.  1.
         12    1    3    3    0    0  0.80164339352E+01 -0.21875076521E+01  0.10001519478E+02  0.13003030210E+02  0.00000000000E+00 0. -1.
</event>
<event>
 7    1  0.5972636E-013  0.5052885E+02  0.7816164E-02  0.1300439E+00
        -11   -1    0    0    0    0  0.00000000000E+00  0.00000000000E+00  0.45593999997E+02  0.45594000000E+02  0.51100000000E-03 0. -1.
         11   -1    0    0    0    0 -0.00000000000E+00 -0.00000000000E+00 -0.45593999997E+02  0.45594000000E+02  0.51100000000E-03 0.  1.
    9900012    2    1    2    0    0  0.35518456662E+02  0.15535556516E+02 -0.12257740980E+02  0.50528849814E+02  0.29999969494E+02 0.  0.
         12    1    1    2    0    0 -0.35518456662E+02 -0.15535556516E+02  0.12257740980E+02  0.40659150186E+02  0.00000000000E+00 0. -1.
         11    1    3    3    0    0  0.50949800025E+01  0.15018486056E+01 -0.13924707479E+02  0.14903417363E+02  0.51100000000E-03 0. -1.
        -11    1    3    3    0    0  0.81601424039E+00 -0.13979236098E+01 -0.13417464590E+01  0.21024636692E+01  0.51100000000E-03 0.  1.
         12    1    3    3    0    0  0.29607462419E+02  0.15431631520E+02  0.30087129579E+01  0.33522968782E+02  0.00000000000E+00 0. -1.
</event>
<event>
 7    1  0.5972636E-013  0.5052886E+02  0.7816164E-02  0.1300439E+00
        -11   -1    0    0    0    0  0.00000000000E+00  0.00000000000E+00  0.45593999997E+02  0.45594000000E+02  0.51100000000E-03 0.  1.
         11   -1    0    0    0    0 -0.00000000000E+00 -0.00000000000E+00 -0.45593999997E+02  0.45594000000E+02  0.51100000000E-03 0. -1.
    9900012    2    1    2    0    0 -0.58290230482E+01  0.24085194187E+02  0.32234937615E+02  0.50528864596E+02  0.30000014427E+02 0.  0.
         12    1    1    2    0    0  0.58290230482E+01 -0.24085194187E+02 -0.32234937615E+02  0.40659135404E+02  0.00000000000E+00 0. -1.
         11    1    3    3    0    0  0.67402910183E+01  0.13127228344E+01 -0.61094626259E+00  0.68940568498E+01  0.51100000000E-03 0. -1.
        -11    1    3    3    0    0 -0.98184486397E+01  0.14104091774E+02  0.12201858799E+02  0.21076353975E+02  0.51100000000E-03 0.  1.
         12    1    3    3    0    0 -0.27508654269E+01  0.86683795786E+01  0.20644025078E+02  0.22558453771E+02  0.00000000000E+00 0. -1.
</event>
<event>
 7    1  0.5972636E-013  0.5052886E+02  0.7816164E-02  0.1300439E+00
        -11   -1    0    0    0    0  0.00000000000E+00  0.00000000000E+00  0.45593999997E+02  0.45594000000E+02  0.51100000000E-03 0.  1.
         11   -1    0    0    0    0 -0.00000000000E+00 -0.00000000000E+00 -0.45593999997E+02  0.45594000000E+02  0.51100000000E-03 0. -1.
    9900012    2    1    2    0    0 -0.38864879194E+02 -0.17543643254E+01  0.11815619264E+02  0.50528862189E+02  0.30000007109E+02 0.  0.
         12    1    1    2    0    0  0.38864879194E+02  0.17543643254E+01 -0.11815619264E+02  0.40659137811E+02  0.00000000000E+00 0. -1.
         11    1    3    3    0    0 -0.33613555440E+01  0.33236917604E+01 -0.47033914991E+01  0.66683978486E+01  0.51100000000E-03 0. -1.
        -11    1    3    3    0    0 -0.35677356688E+02 -0.61556588647E+01  0.19189409287E+02  0.40975594508E+02  0.51100000000E-03 0.  1.
        -12    1    3    3    0    0  0.17383303794E+00  0.10776027790E+01 -0.26703985231E+01  0.28848698318E+01  0.00000000000E+00 0.  1.
</event>
<event>
 7    1  0.5972636E-013  0.5052885E+02  0.7816164E-02  0.1300439E+00
        -11   -1    0    0    0    0  0.00000000000E+00  0.00000000000E+00  0.45593999997E+02  0.45594000000E+02  0.51100000000E-03 0.  1.
         11   -1    0    0    0    0 -0.00000000000E+00 -0.00000000000E+00 -0.45593999997E+02  0.45594000000E+02  0.51100000000E-03 0. -1.
    9900012    2    1    2    0    0 -0.25432986245E+02  0.24842270108E+02  0.19727925162E+02  0.50528853370E+02  0.29999980304E+02 0.  0.
         12    1    1    2    0    0  0.25432986245E+02 -0.24842270108E+02 -0.19727925162E+02  0.40659146630E+02  0.00000000000E+00 0. -1.
         11    1    3    3    0    0 -0.12805712715E+02  0.10728478628E+00  0.12707841086E+02  0.18041258644E+02  0.51100000000E-03 0. -1.
        -11    1    3    3    0    0  0.47028443224E+00  0.11524007994E+02 -0.21737072707E+01  0.11736649064E+02  0.51100000000E-03 0.  1.
        -12    1    3    3    0    0 -0.13097557962E+02  0.13210977328E+02  0.91937913474E+01  0.20750945662E+02  0.00000000000E+00 0.  1.
</event>
<event>
 7    1  0.5972636E-013  0.5052885E+02  0.7816164E-02  0.1300439E+00
        -11   -1    0    0    0    0  0.00000000000E+00  0.00000000000E+00  0.45593999997E+02  0.45594000000E+02  0.51100000000E-03 0.  1.
         11   -1    0    0    0    0 -0.00000000000E+00 -0.00000000000E+00 -0.45593999997E+02  0.45594000000E+02  0.51100000000E-03 0. -1.
    9900012    2    1    2    0    0  0.37546756523E+02  0.97076410569E+00  0.15571282429E+02  0.50528854106E+02  0.29999982540E+02 0.  0.
         12    1    1    2    0    0 -0.37546756523E+02 -0.97076410569E+00 -0.15571282429E+02  0.40659145894E+02  0.00000000000E+00 0. -1.
         11    1    3    3    0    0  0.13428748055E+02  0.49710503841E+01 -0.74272827610E+01  0.16130937534E+02  0.51100000000E-03 0. -1.
        -11    1    3    3    0    0  0.18077404101E+02 -0.53865244446E+00  0.13255597986E+02  0.22423058750E+02  0.51100000000E-03 0.  1.
         12    1    3    3    0    0  0.60406043673E+01 -0.34616338339E+01  0.97429672038E+01  0.11974857822E+02  0.00000000000E+00 0. -1.
</event>
<event>
 7    1  0.5972636E-013  0.5052885E+02  0.7816164E-02  0.1300439E+00
        -11   -1    0    0    0    0  0.00000000000E+00  0.00000000000E+00  0.45593999997E+02  0.45594000000E+02  0.51100000000E-03 0. -1.
         11   -1    0    0    0    0 -0.00000000000E+00 -0.00000000000E+00 -0.45593999997E+02  0.45594000000E+02  0.51100000000E-03 0.  1.
    9900012    2    1    2    0    0  0.21350423663E+02 -0.33587544053E+02 -0.83188203905E+01  0.50528849999E+02  0.29999970057E+02 0.  0.
         12    1    1    2    0    0 -0.21350423663E+02  0.33587544053E+02  0.83188203905E+01  0.40659150001E+02  0.00000000000E+00 0. -1.
         11    1    3    3    0    0  0.17175429616E+01  0.48941623410E+01 -0.31870982823E+01  0.60877232663E+01  0.51100000000E-03 0. -1.
        -11    1    3    3    0    0  0.31353476892E+01 -0.15101088190E+02 -0.32670658487E+01  0.15765373106E+02  0.51100000000E-03 0.  1.
         12    1    3    3    0    0  0.16497533012E+02 -0.23380618204E+02 -0.18646562595E+01  0.28675753626E+02  0.00000000000E+00 0. -1.
</event>
<event>
 7    1  0.5972636E-013  0.5052886E+02  0.7816164E-02  0.1300439E+00
        -11   -1    0    0    0    0  0.00000000000E+00  0.00000000000E+00  0.45593999997E+02  0.45594000000E+02  0.51100000000E-03 0.  1.
         11   -1    0    0    0    0 -0.00000000000E+00 -0.00000000000E+00 -0.45593999997E+02  0.45594000000E+02  0.51100000000E-03 0. -1.
    9900012    2    1    2    0    0  0.11238357118E+02  0.60970898819E+01  0.38596507739E+02  0.50528860985E+02  0.30000003451E+02 0.  0.
         12    1    1    2    0    0 -0.11238357118E+02 -0.60970898819E+01 -0.38596507739E+02  0.40659139015E+02  0.00000000000E+00 0. -1.
         11    1    3    3    0    0  0.15590352358E+02  0.12614616899E+02  0.27276498850E+02  0.33855502299E+02  0.51100000000E-03 0. -1.
        -11    1    3    3    0    0 -0.25818032417E+01 -0.24856731436E+01  0.11716335776E+02  0.12252216258E+02  0.51100000000E-03 0.  1.
         12    1    3    3    0    0 -0.17701919983E+01 -0.40318538734E+01 -0.39632688686E+00  0.44211424280E+01  0.00000000000E+00 0. -1.
</event>
<event>
 7    1  0.5972636E-013  0.5052886E+02  0.7816164E-02  0.1300439E+00
        -11   -1    0    0    0    0  0.00000000000E+00  0.00000000000E+00  0.45593999997E+02  0.45594000000E+02  0.51100000000E-03 0. -1.
         11   -1    0    0    0    0 -0.00000000000E+00 -0.00000000000E+00 -0.45593999997E+02  0.45594000000E+02  0.51100000000E-03 0.  1.
    9900012    2    1    2    0    0 -0.33355302715E+02  0.15332554246E+02 -0.17478623184E+02  0.50528859487E+02  0.29999998896E+02 0.  0.
         12    1    1    2    0    0  0.33355302715E+02 -0.15332554246E+02  0.17478623184E+02  0.40659140513E+02  0.00000000000E+00 0. -1.
         11    1    3    3    0    0 -0.38152666063E+01 -0.65839609577E+01 -0.18830262388E+01  0.78390426231E+01  0.51100000000E-03 0. -1.
        -11    1    3    3    0    0 -0.21606155061E+02  0.21500648308E+02 -0.75918170744E+01  0.31412409983E+02  0.51100000000E-03 0.  1.
         12    1    3    3    0    0 -0.79338810468E+01  0.41586689607E+00 -0.80037798703E+01  0.11277406881E+02  0.00000000000E+00 0. -1.
</event>
<event>
 7    1  0.5972636E-013  0.5052888E+02  0.7816164E-02  0.1300439E+00
        -11   -1    0    0    0    0  0.00000000000E+00  0.00000000000E+00  0.45593999997E+02  0.45594000000E+02  0.51100000000E-03 0. -1.
         11   -1    0    0    0    0 -0.00000000000E+00 -0.00000000000E+00 -0.45593999997E+02  0.45594000000E+02  0.51100000000E-03 0.  1.
    9900012    2    1    2    0    0  0.28513432633E+02  0.15948151344E+02 -0.24203405600E+02  0.50528877844E+02  0.30000054695E+02 0.  0.
         12    1    1    2    0    0 -0.28513432633E+02 -0.15948151344E+02  0.24203405600E+02  0.40659122156E+02  0.00000000000E+00 0. -1.
         11    1    3    3    0    0  0.14730773874E+02  0.28893554404E+01 -0.10241051930E+02  0.18172044978E+02  0.51100000000E-03 0. -1.
        -11    1    3    3    0    0  0.11683474816E+02  0.10383594275E+02  0.22497914769E+01  0.15791902222E+02  0.51100000000E-03 0.  1.
        -12    1    3    3    0    0  0.20991839438E+01  0.26752016290E+01 -0.16212145147E+02  0.16564930645E+02  0.00000000000E+00 0.  1.
</event>
<event>
 7    1  0.5972636E-013  0.5052885E+02  0.7816164E-02  0.1300439E+00
        -11   -1    0    0    0    0  0.00000000000E+00  0.00000000000E+00  0.45593999997E+02  0.45594000000E+02  0.51100000000E-03 0.  1.
         11   -1    0    0    0    0 -0.00000000000E+00 -0.00000000000E+00 -0.45593999997E+02  0.45594000000E+02  0.51100000000E-03 0. -1.
    9900012    2    1    2    0    0  0.38731354351E+02 -0.12309972521E+02  0.12302041461E+01  0.50528848072E+02  0.29999964198E+02 0.  0.
         12    1    1    2    0    0 -0.38731354351E+02  0.12309972521E+02 -0.12302041461E+01  0.40659151928E+02  0.00000000000E+00 0. -1.
         11    1    3    3    0    0  0.19249696795E+02 -0.17031172023E+01 -0.11414322970E+02  0.22444112904E+02  0.51100000000E-03 0. -1.
        -11    1    3    3    0    0  0.16290010800E+02 -0.27344385339E+01  0.73859358264E+01  0.18094022611E+02  0.51100000000E-03 0.  1.
         12    1    3    3    0    0  0.31916467563E+01 -0.78724167844E+01  0.52585912900E+01  0.99907125572E+01  0.00000000000E+00 0. -1.
</event>
<event>
 7    1  0.5972636E-013  0.5052885E+02  0.7816164E-02  0.1300439E+00
        -11   -1    0    0    0    0  0.00000000000E+00  0.00000000000E+00  0.45593999997E+02  0.45594000000E+02  0.51100000000E-03 0.  1.
         11   -1    0    0    0    0 -0.00000000000E+00 -0.00000000000E+00 -0.45593999997E+02  0.45594000000E+02  0.51100000000E-03 0. -1.
    9900012    2    1    2    0    0 -0.14630927907E+02  0.23872841324E+02  0.29482022068E+02  0.50528853064E+02  0.29999979373E+02 0.  0.
         12    1    1    2    0    0  0.14630927907E+02 -0.23872841324E+02 -0.29482022068E+02  0.40659146936E+02  0.00000000000E+00 0. -1.
         11    1    3    3    0    0 -0.18856058323E+01  0.20382102669E+01 -0.29372146989E+01  0.40419105502E+01  0.51100000000E-03 0. -1.
        -11    1    3    3    0    0 -0.42162061838E+01  0.11866677405E+02  0.30791709130E+02  0.33267458254E+02  0.51100000000E-03 0.  1.
        -12    1    3    3    0    0 -0.85291158911E+01  0.99679536522E+01  0.16275276370E+01  0.13219484260E+02  0.00000000000E+00 0.  1.
</event>
<event>
 7    1  0.5972636E-013  0.5052888E+02  0.7816164E-02  0.1300439E+00
        -11   -1    0    0    0    0  0.00000000000E+00  0.00000000000E+00  0.45593999997E+02  0.45594000000E+02  0.51100000000E-03 0.  1.
         11   -1    0    0    0    0 -0.00000000000E+00 -0.00000000000E+00 -0.45593999997E+02  0.45594000000E+02  0.51100000000E-03 0. -1.
    9900012    2    1    2    0    0  0.20050648235E+01 -0.40085743034E+02  0.65020680622E+01  0.50528880867E+02  0.30000063885E+02 0.  0.
         12    1    1    2    0    0 -0.20050648235E+01  0.40085743034E+02 -0.65020680622E+01  0.40659119133E+02  0.00000000000E+00 0. -1.
         11    1    3    3    0    0 -0.30041300264E+01 -0.68074745346E-01  0.49186456503E+01  0.57638968312E+01  0.51100000000E-03 0. -1.
        -11    1    3    3    0    0 -0.36638838212E+01 -0.19118455162E+02 -0.68215364868E+01  0.20626990394E+02  0.51100000000E-03 0.  1.
        -12    1    3    3    0    0  0.86730786711E+01 -0.20899213127E+02  0.84049588987E+01  0.24137993642E+02  0.00000000000E+00 0.  1.
</event>
<event>
 7    1  0.5972636E-013  0.5052886E+02  0.7816164E-02  0.1300439E+00
        -11   -1    0    0    0    0  0.00000000000E+00  0.00000000000E+00  0.45593999997E+02  0.45594000000E+02  0.51100000000E-03 0. -1.
         11   -1    0    0    0    0 -0.00000000000E+00 -0.00000000000E+00 -0.45593999997E+02  0.45594000000E+02  0.51100000000E-03 0.  1.
    9900012    2    1    2    0    0 -0.13225553536E+02 -0.34556101193E+02 -0.16856042873E+02  0.50528861085E+02  0.30000003753E+02 0.  0.
         12    1    1    2    0    0  0.13225553536E+02  0.34556101193E+02  0.16856042873E+02  0.40659138915E+02  0.00000000000E+00 0. -1.
         11    1    3    3    0    0 -0.58961002745E+01 -0.72346835956E+01  0.62728445423E+01  0.11245142244E+02  0.51100000000E-03 0. -1.
        -11    1    3    3    0    0  0.23769438237E+01 -0.17348908110E+02 -0.15648813429E+02  0.23484459469E+02  0.51100000000E-03 0.  1.
         12    1    3    3    0    0 -0.97063970857E+01 -0.99725094872E+01 -0.74800739857E+01  0.15799259372E+02  0.00000000000E+00 0. -1.
</event>
<event>
 7    1  0.5972636E-013  0.5052886E+02  0.7816164E-02  0.1300439E+00
        -11   -1    0    0    0    0  0.00000000000E+00  0.00000000000E+00  0.45593999997E+02  0.45594000000E+02  0.51100000000E-03 0.  1.
         11   -1    0    0    0    0 -0.00000000000E+00 -0.00000000000E+00 -0.45593999997E+02  0.45594000000E+02  0.51100000000E-03 0. -1.
    9900012    2    1    2    0    0 -0.36107398739E+01  0.18158441126E+02  0.36199440725E+02  0.50528856681E+02  0.29999990369E+02 0.  0.
         12    1    1    2    0    0  0.36107398739E+01 -0.18158441126E+02 -0.36199440725E+02  0.40659143319E+02  0.00000000000E+00 0. -1.
         11    1    3    3    0    0 -0.89617668892E+01  0.12750837481E+02  0.33882014918E+02  0.37294611641E+02  0.51100000000E-03 0. -1.
        -11    1    3    3    0    0 -0.16173016509E+01  0.13947232497E+01  0.44319616505E+01  0.49196749797E+01  0.51100000000E-03 0.  1.
         12    1    3    3    0    0  0.69683286662E+01  0.40128803949E+01 -0.21145358434E+01  0.83145700609E+01  0.00000000000E+00 0. -1.
</event>
<event>
 7    1  0.5972636E-013  0.5052887E+02  0.7816164E-02  0.1300439E+00
        -11   -1    0    0    0    0  0.00000000000E+00  0.00000000000E+00  0.45593999997E+02  0.45594000000E+02  0.51100000000E-03 0.  1.
         11   -1    0    0    0    0 -0.00000000000E+00 -0.00000000000E+00 -0.45593999997E+02  0.45594000000E+02  0.51100000000E-03 0. -1.
    9900012    2    1    2    0    0  0.16461648378E+02 -0.18704702956E+02  0.32129630555E+02  0.50528868928E+02  0.30000027593E+02 0.  0.
         12    1    1    2    0    0 -0.16461648378E+02  0.18704702956E+02 -0.32129630555E+02  0.40659131072E+02  0.00000000000E+00 0. -1.
         11    1    3    3    0    0 -0.33474866413E+01  0.46668176555E+01  0.64279815064E+01  0.86199652175E+01  0.51100000000E-03 0. -1.
        -11    1    3    3    0    0  0.89823510045E+01 -0.30625891887E+01  0.40766803370E+01  0.10328669079E+02  0.51100000000E-03 0.  1.
         12    1    3    3    0    0  0.10826784014E+02 -0.20308931423E+02  0.21624968711E+02  0.31580234632E+02  0.00000000000E+00 0. -1.
</event>
<event>
 7    1  0.5972636E-013  0.5052886E+02  0.7816164E-02  0.1300439E+00
        -11   -1    0    0    0    0  0.00000000000E+00  0.00000000000E+00  0.45593999997E+02  0.45594000000E+02  0.51100000000E-03 0. -1.
         11   -1    0    0    0    0 -0.00000000000E+00 -0.00000000000E+00 -0.45593999997E+02  0.45594000000E+02  0.51100000000E-03 0.  1.
    9900012    2    1    2    0    0  0.16565397256E+02  0.15231404950E+02 -0.33863806728E+02  0.50528862170E+02  0.30000007051E+02 0.  0.
         12    1    1    2    0    0 -0.16565397256E+02 -0.15231404950E+02  0.33863806728E+02  0.40659137830E+02  0.00000000000E+00 0. -1.
         11    1    3    3    0    0 -0.20089048153E+01 -0.64783912179E+01 -0.13495014199E+02  0.15103663788E+02  0.51100000000E-03 0. -1.
        -11    1    3    3    0    0  0.14743498100E+02  0.16497554022E+02 -0.13176239468E+02  0.25751763274E+02  0.51100000000E-03 0.  1.
         12    1    3    3    0    0  0.38308039703E+01  0.52122421456E+01 -0.71925530612E+01  0.96734351076E+01  0.00000000000E+00 0. -1.
</event>
<event>
 7    1  0.5972636E-013  0.5052885E+02  0.7816164E-02  0.1300439E+00
        -11   -1    0    0    0    0  0.00000000000E+00  0.00000000000E+00  0.45593999997E+02  0.45594000000E+02  0.51100000000E-03 0.  1.
         11   -1    0    0    0    0 -0.00000000000E+00 -0.00000000000E+00 -0.45593999997E+02  0.45594000000E+02  0.51100000000E-03 0. -1.
    9900012    2    1    2    0    0 -0.10196134900E+02  0.14750839408E+02  0.36491337766E+02  0.50528853894E+02  0.29999981895E+02 0.  0.
         12    1    1    2    0    0  0.10196134900E+02 -0.14750839408E+02 -0.36491337766E+02  0.40659146106E+02  0.00000000000E+00 0. -1.
         11    1    3    3    0    0  0.33493109968E+01  0.45244919060E+01 -0.28951211410E+01  0.63301372689E+01  0.51100000000E-03 0. -1.
        -11    1    3    3    0    0 -0.75981450315E+01 -0.42305222224E+00  0.18619065676E+02  0.20114183752E+02  0.51100000000E-03 0.  1.
         12    1    3    3    0    0 -0.59473008657E+01  0.10649399724E+02  0.20767393231E+02  0.24084532873E+02  0.00000000000E+00 0. -1.
</event>
<event>
 7    1  0.5972636E-013  0.5052885E+02  0.7816164E-02  0.1300439E+00
        -11   -1    0    0    0    0  0.00000000000E+00  0.00000000000E+00  0.45593999997E+02  0.45594000000E+02  0.51100000000E-03 0.  1.
         11   -1    0    0    0    0 -0.00000000000E+00 -0.00000000000E+00 -0.45593999997E+02  0.45594000000E+02  0.51100000000E-03 0. -1.
    9900012    2    1    2    0    0  0.26538553871E+02 -0.49676160629E+01  0.30400560774E+02  0.50528854088E+02  0.29999982485E+02 0.  0.
         12    1    1    2    0    0 -0.26538553871E+02  0.49676160629E+01 -0.30400560774E+02  0.40659145912E+02  0.00000000000E+00 0. -1.
         11    1    3    3    0    0  0.54578885267E+01  0.11558862504E+02  0.96930154786E+01  0.16042144461E+02  0.51100000000E-03 0. -1.
        -11    1    3    3    0    0  0.12196451108E+02 -0.81176465331E+01  0.15068465900E+02  0.21016856799E+02  0.51100000000E-03 0.  1.
         12    1    3    3    0    0  0.88842142366E+01 -0.84088320342E+01  0.56390793948E+01  0.13469852828E+02  0.00000000000E+00 0. -1.
</event>
<event>
 7    1  0.5972636E-013  0.5052880E+02  0.7816164E-02  0.1300439E+00
        -11   -1    0    0    0    0  0.00000000000E+00  0.00000000000E+00  0.45593999997E+02  0.45594000000E+02  0.51100000000E-03 0. -1.
         11   -1    0    0    0    0 -0.00000000000E+00 -0.00000000000E+00 -0.45593999997E+02  0.45594000000E+02  0.51100000000E-03 0.  1.
    9900012    2    1    2    0    0 -0.21486942706E+02  0.19962693868E+02 -0.28159766265E+02  0.50528803139E+02  0.29999827620E+02 0.  0.
         12    1    1    2    0    0  0.21486942706E+02 -0.19962693868E+02  0.28159766265E+02  0.40659196861E+02  0.00000000000E+00 0. -1.
         11    1    3    3    0    0  0.30544418645E+01  0.16752442085E+02 -0.10455358185E+02  0.19982203230E+02  0.51100000000E-03 0. -1.
        -11    1    3    3    0    0 -0.17417059903E+02  0.23318269700E+01 -0.14007713333E+02  0.22472370275E+02  0.51100000000E-03 0.  1.
         12    1    3    3    0    0 -0.71243246681E+01  0.87842481297E+00 -0.36966947469E+01  0.80742296339E+01  0.00000000000E+00 0. -1.
</event>
<event>
 7    1  0.5972636E-013  0.5052886E+02  0.7816164E-02  0.1300439E+00
        -11   -1    0    0    0    0  0.00000000000E+00  0.00000000000E+00  0.45593999997E+02  0.45594000000E+02  0.51100000000E-03 0.  1.
         11   -1    0    0    0    0 -0.00000000000E+00 -0.00000000000E+00 -0.45593999997E+02  0.45594000000E+02  0.51100000000E-03 0. -1.
    9900012    2    1    2    0    0  0.27878431895E+02  0.22994033814E+02  0.18634187588E+02  0.50528861998E+02  0.30000006530E+02 0.  0.
         12    1    1    2    0    0 -0.27878431895E+02 -0.22994033814E+02 -0.18634187588E+02  0.40659138002E+02  0.00000000000E+00 0. -1.
         11    1    3    3    0    0  0.10443188429E+02 -0.60019394298E+01  0.95480412866E+01  0.15370379116E+02  0.51100000000E-03 0. -1.
        -11    1    3    3    0    0  0.15182856823E+02  0.23104470360E+02  0.70629287744E+01  0.28534551952E+02  0.51100000000E-03 0.  1.
         12    1    3    3    0    0  0.22523866426E+01  0.58915028839E+01  0.20232175270E+01  0.66239309311E+01  0.00000000000E+00 0. -1.
</event>
<event>
 7    1  0.5972636E-013  0.5052886E+02  0.7816164E-02  0.1300439E+00
        -11   -1    0    0    0    0  0.00000000000E+00  0.00000000000E+00  0.45593999997E+02  0.45594000000E+02  0.51100000000E-03 0. -1.
         11   -1    0    0    0    0 -0.00000000000E+00 -0.00000000000E+00 -0.45593999997E+02  0.45594000000E+02  0.51100000000E-03 0.  1.
    9900012    2    1    2    0    0 -0.24414992212E+02 -0.34910214296E+01 -0.32324701089E+02  0.50528863563E+02  0.30000011285E+02 0.  0.
         12    1    1    2    0    0  0.24414992212E+02  0.34910214296E+01  0.32324701089E+02  0.40659136437E+02  0.00000000000E+00 0. -1.
         11    1    3    3    0    0 -0.11255536080E+02  0.10876937443E+02 -0.57053142273E+01  0.16659696013E+02  0.51100000000E-03 0. -1.
        -11    1    3    3    0    0 -0.35822056417E+01 -0.70777573086E+01 -0.15823742228E+02  0.17700781456E+02  0.51100000000E-03 0.  1.
         12    1    3    3    0    0 -0.95772504911E+01 -0.72902015636E+01 -0.10795644633E+02  0.16168386093E+02  0.00000000000E+00 0. -1.
</event>
<event>
 7    1  0.5972636E-013  0.5052886E+02  0.7816164E-02  0.1300439E+00
        -11   -1    0    0    0    0  0.00000000000E+00  0.00000000000E+00  0.45593999997E+02  0.45594000000E+02  0.51100000000E-03 0.  1.
         11   -1    0    0    0    0 -0.00000000000E+00 -0.00000000000E+00 -0.45593999997E+02  0.45594000000E+02  0.51100000000E-03 0. -1.
    9900012    2    1    2    0    0  0.46252597817E+01 -0.15911396845E+02  0.37129508506E+02  0.50528856139E+02  0.29999988721E+02 0.  0.
         12    1    1    2    0    0 -0.46252597817E+01  0.15911396845E+02 -0.37129508506E+02  0.40659143861E+02  0.00000000000E+00 0. -1.
         11    1    3    3    0    0 -0.65164714924E+01 -0.99281442636E+01  0.16140361907E+02  0.20038556135E+02  0.51100000000E-03 0. -1.
        -11    1    3    3    0    0  0.22062587261E+01 -0.51089944103E+00 -0.33201601139E+01  0.40189624592E+01  0.51100000000E-03 0.  1.
        -12    1    3    3    0    0  0.89354725480E+01 -0.54723531401E+01  0.24309306713E+02  0.26471337545E+02  0.00000000000E+00 0.  1.
</event>
<event>
 7    1  0.5972636E-013  0.5052886E+02  0.7816164E-02  0.1300439E+00
        -11   -1    0    0    0    0  0.00000000000E+00  0.00000000000E+00  0.45593999997E+02  0.45594000000E+02  0.51100000000E-03 0.  1.
         11   -1    0    0    0    0 -0.00000000000E+00 -0.00000000000E+00 -0.45593999997E+02  0.45594000000E+02  0.51100000000E-03 0. -1.
    9900012    2    1    2    0    0  0.36976921001E+02 -0.16894255163E+02 -0.67589829375E+00  0.50528863478E+02  0.30000011028E+02 0.  0.
         12    1    1    2    0    0 -0.36976921001E+02  0.16894255163E+02  0.67589829375E+00  0.40659136522E+02  0.00000000000E+00 0. -1.
         11    1    3    3    0    0  0.27841041229E+01 -0.32305825922E+01  0.94219421643E+01  0.10342190003E+02  0.51100000000E-03 0. -1.
        -11    1    3    3    0    0  0.22245025083E+02 -0.24762742316E+01 -0.41023006169E+01  0.22755261932E+02  0.51100000000E-03 0.  1.
        -12    1    3    3    0    0  0.11947791795E+02 -0.11187398339E+02 -0.59955398412E+01  0.17431411543E+02  0.00000000000E+00 0.  1.
</event>
<event>
 7    1  0.5972636E-013  0.5052886E+02  0.7816164E-02  0.1300439E+00
        -11   -1    0    0    0    0  0.00000000000E+00  0.00000000000E+00  0.45593999997E+02  0.45594000000E+02  0.51100000000E-03 0.  1.
         11   -1    0    0    0    0 -0.00000000000E+00 -0.00000000000E+00 -0.45593999997E+02  0.45594000000E+02  0.51100000000E-03 0. -1.
    9900012    2    1    2    0    0 -0.23113069268E+02  0.42858576454E+01  0.33175036168E+02  0.50528861157E+02  0.30000003972E+02 0.  0.
         12    1    1    2    0    0  0.23113069268E+02 -0.42858576454E+01 -0.33175036168E+02  0.40659138843E+02  0.00000000000E+00 0. -1.
         11    1    3    3    0    0  0.38948582975E+01 -0.44912709842E+01  0.39228650498E+01  0.71225210895E+01  0.51100000000E-03 0. -1.
        -11    1    3    3    0    0 -0.16834013405E+02  0.11726645713E+02  0.24029062731E+02  0.31595792172E+02  0.51100000000E-03 0.  1.
         12    1    3    3    0    0 -0.10173914160E+02 -0.29495170831E+01  0.52231083877E+01  0.11810547896E+02  0.00000000000E+00 0. -1.
</event>
<event>
 7    1  0.5972636E-013  0.5052886E+02  0.7816164E-02  0.1300439E+00
        -11   -1    0    0    0    0  0.00000000000E+00  0.00000000000E+00  0.45593999997E+02  0.45594000000E+02  0.51100000000E-03 0. -1.
         11   -1    0    0    0    0 -0.00000000000E+00 -0.00000000000E+00 -0.45593999997E+02  0.45594000000E+02  0.51100000000E-03 0.  1.
    9900012    2    1    2    0    0 -0.26924336661E+02  0.25202435006E+02 -0.17119657318E+02  0.50528864476E+02  0.30000014062E+02 0.  0.
         12    1    1    2    0    0  0.26924336661E+02 -0.25202435006E+02  0.17119657318E+02  0.40659135524E+02  0.00000000000E+00 0. -1.
         11    1    3    3    0    0 -0.70296298815E+00  0.64592034248E-01  0.48864050772E+01  0.49371331695E+01  0.51100000000E-03 0. -1.
        -11    1    3    3    0    0 -0.34968640164E+01  0.13584548391E+02 -0.10993283766E+02  0.17821905093E+02  0.51100000000E-03 0.  1.
        -12    1    3    3    0    0 -0.22724509656E+02  0.11553294581E+02 -0.11012778630E+02  0.27769826214E+02  0.00000000000E+00 0.  1.
</event>
<event>
 7    1  0.5972636E-013  0.5052887E+02  0.7816164E-02  0.1300439E+00
        -11   -1    0    0    0    0  0.00000000000E+00  0.00000000000E+00  0.45593999997E+02  0.45594000000E+02  0.51100000000E-03 0. -1.
         11   -1    0    0    0    0 -0.00000000000E+00 -0.00000000000E+00 -0.45593999997E+02  0.45594000000E+02  0.51100000000E-03 0.  1.
    9900012    2    1    2    0    0  0.54726444618E+01  0.99898146844E+01 -0.39030998357E+02  0.50528867354E+02  0.30000022808E+02 0.  0.
         12    1    1    2    0    0 -0.54726444618E+01 -0.99898146844E+01  0.39030998357E+02  0.40659132646E+02  0.00000000000E+00 0. -1.
         11    1    3    3    0    0  0.76758846778E+01 -0.96675442395E-01 -0.61392774902E+01  0.98295106740E+01  0.51100000000E-03 0. -1.
        -11    1    3    3    0    0 -0.72947634696E+01  0.14420505287E+02 -0.16986246005E+02  0.23445620069E+02  0.51100000000E-03 0.  1.
        -12    1    3    3    0    0  0.50915232535E+01 -0.43340151606E+01 -0.15905474861E+02  0.17253736610E+02  0.00000000000E+00 0.  1.
</event>
<event>
 7    1  0.5972636E-013  0.5052887E+02  0.7816164E-02  0.1300439E+00
        -11   -1    0    0    0    0  0.00000000000E+00  0.00000000000E+00  0.45593999997E+02  0.45594000000E+02  0.51100000000E-03 0. -1.
         11   -1    0    0    0    0 -0.00000000000E+00 -0.00000000000E+00 -0.45593999997E+02  0.45594000000E+02  0.51100000000E-03 0.  1.
    9900012    2    1    2    0    0  0.33238137792E+02  0.23254596379E+02  0.27595494668E+01  0.50528866095E+02  0.30000018983E+02 0.  0.
         12    1    1    2    0    0 -0.33238137792E+02 -0.23254596379E+02 -0.27595494668E+01  0.40659133905E+02  0.00000000000E+00 0. -1.
         11    1    3    3    0    0 -0.99692474710E+00  0.23549169437E+00  0.52676881344E+01  0.53663631848E+01  0.51100000000E-03 0. -1.
        -11    1    3    3    0    0  0.16063429550E+02  0.21475602672E+02 -0.23924942936E+01  0.26925068399E+02  0.51100000000E-03 0.  1.
        -12    1    3    3    0    0  0.18171632989E+02  0.15435020122E+01 -0.11564437392E+00  0.18237434512E+02  0.00000000000E+00 0.  1.
</event>
<event>
 7    1  0.5972636E-013  0.5052886E+02  0.7816164E-02  0.1300439E+00
        -11   -1    0    0    0    0  0.00000000000E+00  0.00000000000E+00  0.45593999997E+02  0.45594000000E+02  0.51100000000E-03 0.  1.
         11   -1    0    0    0    0 -0.00000000000E+00 -0.00000000000E+00 -0.45593999997E+02  0.45594000000E+02  0.51100000000E-03 0. -1.
    9900012    2    1    2    0    0 -0.12470857455E+02  0.15801710229E+02  0.35326327009E+02  0.50528859432E+02  0.29999998728E+02 0.  0.
         12    1    1    2    0    0  0.12470857455E+02 -0.15801710229E+02 -0.35326327009E+02  0.40659140568E+02  0.00000000000E+00 0. -1.
         11    1    3    3    0    0 -0.98146608259E+01  0.28721821030E+01  0.10043765264E+02  0.14333674270E+02  0.51100000000E-03 0. -1.
        -11    1    3    3    0    0  0.37000274101E+01 -0.43272740679E+01  0.12684608212E+02  0.13903768894E+02  0.51100000000E-03 0.  1.
        -12    1    3    3    0    0 -0.63562240390E+01  0.17256802194E+02  0.12597953533E+02  0.22291416268E+02  0.00000000000E+00 0.  1.
</event>
<event>
 7    1  0.5972636E-013  0.5052887E+02  0.7816164E-02  0.1300439E+00
        -11   -1    0    0    0    0  0.00000000000E+00  0.00000000000E+00  0.45593999997E+02  0.45594000000E+02  0.51100000000E-03 0.  1.
         11   -1    0    0    0    0 -0.00000000000E+00 -0.00000000000E+00 -0.45593999997E+02  0.45594000000E+02  0.51100000000E-03 0. -1.
    9900012    2    1    2    0    0  0.13335210135E+01  0.12916335512E+01  0.40616722624E+02  0.50528871232E+02  0.30000034596E+02 0.  0.
         12    1    1    2    0    0 -0.13335210135E+01 -0.12916335512E+01 -0.40616722624E+02  0.40659128768E+02  0.00000000000E+00 0. -1.
         11    1    3    3    0    0  0.14229557650E+02 -0.16077281371E+01  0.16885442114E+02  0.22140082572E+02  0.51100000000E-03 0. -1.
        -11    1    3    3    0    0 -0.11100679364E+01  0.30526555061E+01  0.87037740536E+01  0.92901366782E+01  0.51100000000E-03 0.  1.
         12    1    3    3    0    0 -0.11785968700E+02 -0.15329381784E+00  0.15027506456E+02  0.19098651981E+02  0.00000000000E+00 0. -1.
</event>
<event>
 7    1  0.5972636E-013  0.5052886E+02  0.7816164E-02  0.1300439E+00
        -11   -1    0    0    0    0  0.00000000000E+00  0.00000000000E+00  0.45593999997E+02  0.45594000000E+02  0.51100000000E-03 0. -1.
         11   -1    0    0    0    0 -0.00000000000E+00 -0.00000000000E+00 -0.45593999997E+02  0.45594000000E+02  0.51100000000E-03 0.  1.
    9900012    2    1    2    0    0  0.29338790197E+02 -0.10754566150E+02 -0.26014237497E+02  0.50528857659E+02  0.29999993341E+02 0.  0.
         12    1    1    2    0    0 -0.29338790197E+02  0.10754566150E+02  0.26014237497E+02  0.40659142341E+02  0.00000000000E+00 0. -1.
         11    1    3    3    0    0  0.81963238528E+00 -0.93942279382E+01  0.20973229166E+01  0.96603353710E+01  0.51100000000E-03 0. -1.
        -11    1    3    3    0    0  0.14208713777E+02 -0.84719965236E+00 -0.84772167362E+01  0.16567090822E+02  0.51100000000E-03 0.  1.
         12    1    3    3    0    0  0.14310444035E+02 -0.51313855969E+00 -0.19634343678E+02  0.24301431466E+02  0.00000000000E+00 0. -1.
</event>
<event>
 7    1  0.5972636E-013  0.5052886E+02  0.7816164E-02  0.1300439E+00
        -11   -1    0    0    0    0  0.00000000000E+00  0.00000000000E+00  0.45593999997E+02  0.45594000000E+02  0.51100000000E-03 0.  1.
         11   -1    0    0    0    0 -0.00000000000E+00 -0.00000000000E+00 -0.45593999997E+02  0.45594000000E+02  0.51100000000E-03 0. -1.
    9900012    2    1    2    0    0  0.21644445802E+02  0.22037074605E+02 -0.26439568376E+02  0.50528862440E+02  0.30000007873E+02 0.  0.
         12    1    1    2    0    0 -0.21644445802E+02 -0.22037074605E+02  0.26439568376E+02  0.40659137560E+02  0.00000000000E+00 0. -1.
         11    1    3    3    0    0  0.12360355522E+01 -0.62620118793E+01 -0.29617070874E+01  0.70364966990E+01  0.51100000000E-03 0. -1.
        -11    1    3    3    0    0  0.19569793634E+02  0.19439338706E+02 -0.16146380308E+02  0.31962013540E+02  0.51100000000E-03 0.  1.
        -12    1    3    3    0    0  0.83861661530E+00  0.88597477777E+01 -0.73314809813E+01  0.11530352201E+02  0.00000000000E+00 0.  1.
</event>
<event>
 7    1  0.5972636E-013  0.5052886E+02  0.7816164E-02  0.1300439E+00
        -11   -1    0    0    0    0  0.00000000000E+00  0.00000000000E+00  0.45593999997E+02  0.45594000000E+02  0.51100000000E-03 0.  1.
         11   -1    0    0    0    0 -0.00000000000E+00 -0.00000000000E+00 -0.45593999997E+02  0.45594000000E+02  0.51100000000E-03 0. -1.
    9900012    2    1    2    0    0  0.12193377959E+02 -0.21353722025E+02  0.32380637467E+02  0.50528860890E+02  0.30000003162E+02 0.  0.
         12    1    1    2    0    0 -0.12193377959E+02  0.21353722025E+02 -0.32380637467E+02  0.40659139110E+02  0.00000000000E+00 0. -1.
         11    1    3    3    0    0  0.11346744640E+02 -0.19613535734E+02  0.15473999538E+02  0.27438732840E+02  0.51100000000E-03 0. -1.
        -11    1    3    3    0    0 -0.47067127851E+01 -0.13557644969E+01  0.16824394490E+02  0.17522884832E+02  0.51100000000E-03 0.  1.
         12    1    3    3    0    0  0.55533461036E+01 -0.38442179401E+00  0.82243438904E-01  0.55672432177E+01  0.00000000000E+00 0. -1.
</event>
<event>
 7    1  0.5972636E-013  0.5052886E+02  0.7816164E-02  0.1300439E+00
        -11   -1    0    0    0    0  0.00000000000E+00  0.00000000000E+00  0.45593999997E+02  0.45594000000E+02  0.51100000000E-03 0.  1.
         11   -1    0    0    0    0 -0.00000000000E+00 -0.00000000000E+00 -0.45593999997E+02  0.45594000000E+02  0.51100000000E-03 0. -1.
    9900012    2    1    2    0    0 -0.42379448929E+01  0.30963879089E+02  0.26008526284E+02  0.50528862963E+02  0.30000009462E+02 0.  0.
         12    1    1    2    0    0  0.42379448929E+01 -0.30963879089E+02 -0.26008526284E+02  0.40659137037E+02  0.00000000000E+00 0. -1.
         11    1    3    3    0    0  0.47594899065E+01 -0.21558230580E+01  0.99707104702E+01  0.11256792828E+02  0.51100000000E-03 0. -1.
        -11    1    3    3    0    0 -0.10036882728E+02  0.19753134133E+02  0.75671808246E+01  0.23413405324E+02  0.51100000000E-03 0.  1.
        -12    1    3    3    0    0  0.10394479286E+01  0.13366568014E+02  0.84706349890E+01  0.15858664811E+02  0.00000000000E+00 0.  1.
</event>
<event>
 7    1  0.5972636E-013  0.5052886E+02  0.7816164E-02  0.1300439E+00
        -11   -1    0    0    0    0  0.00000000000E+00  0.00000000000E+00  0.45593999997E+02  0.45594000000E+02  0.51100000000E-03 0.  1.
         11   -1    0    0    0    0 -0.00000000000E+00 -0.00000000000E+00 -0.45593999997E+02  0.45594000000E+02  0.51100000000E-03 0. -1.
    9900012    2    1    2    0    0 -0.32469866343E+02  0.11529736305E+02  0.21585603924E+02  0.50528864048E+02  0.30000012760E+02 0.  0.
         12    1    1    2    0    0  0.32469866343E+02 -0.11529736305E+02 -0.21585603924E+02  0.40659135952E+02  0.00000000000E+00 0. -1.
         11    1    3    3    0    0 -0.63330750375E+01 -0.20814173752E+01 -0.41201821655E+01  0.78368385883E+01  0.51100000000E-03 0. -1.
        -11    1    3    3    0    0 -0.24390528898E+02  0.16002113990E+02  0.17616550049E+02  0.34077975116E+02  0.51100000000E-03 0.  1.
        -12    1    3    3    0    0 -0.17462624074E+01 -0.23909603101E+01  0.80892360411E+01  0.86140503440E+01  0.00000000000E+00 0.  1.
</event>
<event>
 7    1  0.5972636E-013  0.5052887E+02  0.7816164E-02  0.1300439E+00
        -11   -1    0    0    0    0  0.00000000000E+00  0.00000000000E+00  0.45593999997E+02  0.45594000000E+02  0.51100000000E-03 0. -1.
         11   -1    0    0    0    0 -0.00000000000E+00 -0.00000000000E+00 -0.45593999997E+02  0.45594000000E+02  0.51100000000E-03 0.  1.
    9900012    2    1    2    0    0 -0.36547909642E+02 -0.15803548611E+02 -0.82257694251E+01  0.50528866579E+02  0.30000020454E+02 0.  0.
         12    1    1    2    0    0  0.36547909642E+02  0.15803548611E+02  0.82257694251E+01  0.40659133421E+02  0.00000000000E+00 0. -1.
         11    1    3    3    0    0 -0.17541670881E+01  0.21724560581E+01  0.31193942232E+01  0.41865604114E+01  0.51100000000E-03 0. -1.
        -11    1    3    3    0    0 -0.30151947225E+02 -0.90761837268E+01 -0.39932772677E+00  0.31490895436E+02  0.51100000000E-03 0.  1.
        -12    1    3    3    0    0 -0.46417953292E+01 -0.88998209427E+01 -0.10945835922E+02  0.14851410731E+02  0.00000000000E+00 0.  1.
</event>
<event>
 7    1  0.5972636E-013  0.5052886E+02  0.7816164E-02  0.1300439E+00
        -11   -1    0    0    0    0  0.00000000000E+00  0.00000000000E+00  0.45593999997E+02  0.45594000000E+02  0.51100000000E-03 0.  1.
         11   -1    0    0    0    0 -0.00000000000E+00 -0.00000000000E+00 -0.45593999997E+02  0.45594000000E+02  0.51100000000E-03 0. -1.
    9900012    2    1    2    0    0 -0.29004807137E+01  0.30613770819E+02  0.26599804228E+02  0.50528864039E+02  0.30000012733E+02 0.  0.
         12    1    1    2    0    0  0.29004807137E+01 -0.30613770819E+02 -0.26599804228E+02  0.40659135961E+02  0.00000000000E+00 0. -1.
         11    1    3    3    0    0 -0.52518266416E+01  0.20706956074E+02  0.19441468365E+02  0.28884778091E+02  0.51100000000E-03 0. -1.
        -11    1    3    3    0    0 -0.28438546208E+01 -0.18331008200E+01  0.80932539928E+01  0.87720310176E+01  0.51100000000E-03 0.  1.
         12    1    3    3    0    0  0.51952005486E+01  0.11739915565E+02 -0.93491812984E+00  0.12872054930E+02  0.00000000000E+00 0. -1.
</event>
<event>
 7    1  0.5972636E-013  0.5052886E+02  0.7816164E-02  0.1300439E+00
        -11   -1    0    0    0    0  0.00000000000E+00  0.00000000000E+00  0.45593999997E+02  0.45594000000E+02  0.51100000000E-03 0.  1.
         11   -1    0    0    0    0 -0.00000000000E+00 -0.00000000000E+00 -0.45593999997E+02  0.45594000000E+02  0.51100000000E-03 0. -1.
    9900012    2    1    2    0    0 -0.23903392586E+02  0.11652320237E+02  0.30757388425E+02  0.50528859739E+02  0.29999999663E+02 0.  0.
         12    1    1    2    0    0  0.23903392586E+02 -0.11652320237E+02 -0.30757388425E+02  0.40659140261E+02  0.00000000000E+00 0. -1.
         11    1    3    3    0    0  0.46397497045E+01 -0.19322856934E+01  0.11360322795E+00  0.50273165084E+01  0.51100000000E-03 0. -1.
        -11    1    3    3    0    0 -0.25449448468E+02  0.15072560884E+02  0.29756088530E+02  0.41955706689E+02  0.51100000000E-03 0.  1.
        -12    1    3    3    0    0 -0.30936938222E+01 -0.14879549530E+01  0.88769666705E+00  0.35458365416E+01  0.00000000000E+00 0.  1.
</event>
<event>
 7    1  0.5972636E-013  0.5052885E+02  0.7816164E-02  0.1300439E+00
        -11   -1    0    0    0    0  0.00000000000E+00  0.00000000000E+00  0.45593999997E+02  0.45594000000E+02  0.51100000000E-03 0.  1.
         11   -1    0    0    0    0 -0.00000000000E+00 -0.00000000000E+00 -0.45593999997E+02  0.45594000000E+02  0.51100000000E-03 0. -1.
    9900012    2    1    2    0    0  0.24854108018E+02 -0.29385784056E+02 -0.13111654803E+02  0.50528849964E+02  0.29999969949E+02 0.  0.
         12    1    1    2    0    0 -0.24854108018E+02  0.29385784056E+02  0.13111654803E+02  0.40659150036E+02  0.00000000000E+00 0. -1.
         11    1    3    3    0    0  0.40622095050E+01 -0.24802260738E+01  0.30057193081E+01  0.56291576866E+01  0.51100000000E-03 0. -1.
        -11    1    3    3    0    0  0.11227660474E+02 -0.22821227336E+02 -0.21396482210E+02  0.33236700018E+02  0.51100000000E-03 0.  1.
        -12    1    3    3    0    0  0.95642380399E+01 -0.40843306463E+01  0.52791080989E+01  0.11662992259E+02  0.00000000000E+00 0.  1.
</event>
<event>
 7    1  0.5972636E-013  0.5052887E+02  0.7816164E-02  0.1300439E+00
        -11   -1    0    0    0    0  0.00000000000E+00  0.00000000000E+00  0.45593999997E+02  0.45594000000E+02  0.51100000000E-03 0. -1.
         11   -1    0    0    0    0 -0.00000000000E+00 -0.00000000000E+00 -0.45593999997E+02  0.45594000000E+02  0.51100000000E-03 0.  1.
    9900012    2    1    2    0    0  0.35524300216E+02  0.18018303805E+02 -0.81565797605E+01  0.50528868538E+02  0.30000026407E+02 0.  0.
         12    1    1    2    0    0 -0.35524300216E+02 -0.18018303805E+02  0.81565797605E+01  0.40659131462E+02  0.00000000000E+00 0. -1.
         11    1    3    3    0    0  0.68266401411E+01  0.12051510763E+01  0.56622693333E+01  0.89507932049E+01  0.51100000000E-03 0. -1.
        -11    1    3    3    0    0  0.28448925007E+02  0.10903662640E+02 -0.16972168158E+02  0.34875287601E+02  0.51100000000E-03 0.  1.
        -12    1    3    3    0    0  0.24873506800E+00  0.59094900895E+01  0.31533190641E+01  0.67027877314E+01  0.00000000000E+00 0.  1.
</event>
<event>
 7    1  0.5972636E-013  0.5052887E+02  0.7816164E-02  0.1300439E+00
        -11   -1    0    0    0    0  0.00000000000E+00  0.00000000000E+00  0.45593999997E+02  0.45594000000E+02  0.51100000000E-03 0. -1.
         11   -1    0    0    0    0 -0.00000000000E+00 -0.00000000000E+00 -0.45593999997E+02  0.45594000000E+02  0.51100000000E-03 0.  1.
    9900012    2    1    2    0    0  0.16214406567E+02 -0.37277760786E+02 -0.79156630141E+00  0.50528868101E+02  0.30000025079E+02 0.  0.
         12    1    1    2    0    0 -0.16214406567E+02  0.37277760786E+02  0.79156630141E+00  0.40659131899E+02  0.00000000000E+00 0. -1.
         11    1    3    3    0    0  0.50207657958E+01  0.38763757643E+01 -0.86846620643E+00  0.64022349266E+01  0.51100000000E-03 0. -1.
        -11    1    3    3    0    0  0.11516297965E+02 -0.21011710265E+02  0.71683757001E+00  0.23971461020E+02  0.51100000000E-03 0.  1.
         12    1    3    3    0    0 -0.32265719338E+00 -0.20142426286E+02 -0.63993766500E+00  0.20155172154E+02  0.00000000000E+00 0. -1.
</event>
<event>
 7    1  0.5972636E-013  0.5052885E+02  0.7816164E-02  0.1300439E+00
        -11   -1    0    0    0    0  0.00000000000E+00  0.00000000000E+00  0.45593999997E+02  0.45594000000E+02  0.51100000000E-03 0.  1.
         11   -1    0    0    0    0 -0.00000000000E+00 -0.00000000000E+00 -0.45593999997E+02  0.45594000000E+02  0.51100000000E-03 0. -1.
    9900012    2    1    2    0    0 -0.33950875393E+02  0.12895909287E+01  0.22334755853E+02  0.50528852152E+02  0.29999976601E+02 0.  0.
         12    1    1    2    0    0  0.33950875393E+02 -0.12895909287E+01 -0.22334755853E+02  0.40659147848E+02  0.00000000000E+00 0. -1.
         11    1    3    3    0    0 -0.36121287364E+02 -0.62692026113E+00  0.16547585246E+02  0.39736167500E+02  0.51100000000E-03 0. -1.
        -11    1    3    3    0    0 -0.12275871952E+01 -0.28914231733E+01  0.27145108514E+01  0.41516102554E+01  0.51100000000E-03 0.  1.
         12    1    3    3    0    0  0.33979991660E+01  0.48079343631E+01  0.30726597557E+01  0.66410743970E+01  0.00000000000E+00 0. -1.
</event>
<event>
 7    1  0.5972636E-013  0.5052885E+02  0.7816164E-02  0.1300439E+00
        -11   -1    0    0    0    0  0.00000000000E+00  0.00000000000E+00  0.45593999997E+02  0.45594000000E+02  0.51100000000E-03 0.  1.
         11   -1    0    0    0    0 -0.00000000000E+00 -0.00000000000E+00 -0.45593999997E+02  0.45594000000E+02  0.51100000000E-03 0. -1.
    9900012    2    1    2    0    0 -0.11891411185E+02  0.31054512248E+02  0.23396107751E+02  0.50528852827E+02  0.29999978653E+02 0.  0.
         12    1    1    2    0    0  0.11891411185E+02 -0.31054512248E+02 -0.23396107751E+02  0.40659147173E+02  0.00000000000E+00 0. -1.
         11    1    3    3    0    0  0.82099330117E+00 -0.23014682945E+01  0.12597833078E+02  0.12832621900E+02  0.51100000000E-03 0. -1.
        -11    1    3    3    0    0 -0.30245651638E+01  0.11742061015E+02  0.60028242226E+01  0.13529888773E+02  0.51100000000E-03 0.  1.
         12    1    3    3    0    0 -0.96878393225E+01  0.21613919527E+02  0.47954504506E+01  0.24166342154E+02  0.00000000000E+00 0. -1.
</event>
<event>
 7    1  0.5972636E-013  0.5052886E+02  0.7816164E-02  0.1300439E+00
        -11   -1    0    0    0    0  0.00000000000E+00  0.00000000000E+00  0.45593999997E+02  0.45594000000E+02  0.51100000000E-03 0.  1.
         11   -1    0    0    0    0 -0.00000000000E+00 -0.00000000000E+00 -0.45593999997E+02  0.45594000000E+02  0.51100000000E-03 0. -1.
    9900012    2    1    2    0    0  0.28728729172E+02 -0.12368978906E+02  0.25977569414E+02  0.50528860417E+02  0.30000001722E+02 0.  0.
         12    1    1    2    0    0 -0.28728729172E+02  0.12368978906E+02 -0.25977569414E+02  0.40659139583E+02  0.00000000000E+00 0. -1.
         11    1    3    3    0    0  0.56970523652E+01 -0.66067617983E+01 -0.16330894100E+01  0.88753979287E+01  0.51100000000E-03 0. -1.
        -11    1    3    3    0    0  0.18753569646E+02  0.17935802302E+01  0.27034973691E+02  0.32951526630E+02  0.51100000000E-03 0.  1.
        -12    1    3    3    0    0  0.42781071607E+01 -0.75557973384E+01  0.57568513234E+00  0.87019358576E+01  0.00000000000E+00 0.  1.
</event>
<event>
 7    1  0.5972636E-013  0.5052886E+02  0.7816164E-02  0.1300439E+00
        -11   -1    0    0    0    0  0.00000000000E+00  0.00000000000E+00  0.45593999997E+02  0.45594000000E+02  0.51100000000E-03 0.  1.
         11   -1    0    0    0    0 -0.00000000000E+00 -0.00000000000E+00 -0.45593999997E+02  0.45594000000E+02  0.51100000000E-03 0. -1.
    9900012    2    1    2    0    0  0.33098675126E+02  0.22484444680E+02 -0.72175362668E+01  0.50528863544E+02  0.30000011227E+02 0.  0.
         12    1    1    2    0    0 -0.33098675126E+02 -0.22484444680E+02  0.72175362668E+01  0.40659136456E+02  0.00000000000E+00 0. -1.
         11    1    3    3    0    0  0.11737339697E+02 -0.32979390888E+01  0.29258005190E+01  0.12538016364E+02  0.51100000000E-03 0.  1.
        -11    1    3    3    0    0  0.12589373687E+02  0.18759084981E+02 -0.13430719851E+02  0.26282690790E+02  0.51100000000E-03 0. -1.
         12    1    3    3    0    0  0.87719617415E+01  0.70232987872E+01  0.32873830650E+01  0.11708156391E+02  0.00000000000E+00 0. -1.
</event>
<event>
 7    1  0.5972636E-013  0.5052885E+02  0.7816164E-02  0.1300439E+00
        -11   -1    0    0    0    0  0.00000000000E+00  0.00000000000E+00  0.45593999997E+02  0.45594000000E+02  0.51100000000E-03 0. -1.
         11   -1    0    0    0    0 -0.00000000000E+00 -0.00000000000E+00 -0.45593999997E+02  0.45594000000E+02  0.51100000000E-03 0.  1.
    9900012    2    1    2    0    0 -0.35263653601E+02 -0.40148315461E+01 -0.19837407440E+02  0.50528845169E+02  0.29999955377E+02 0.  0.
         12    1    1    2    0    0  0.35263653601E+02  0.40148315461E+01  0.19837407440E+02  0.40659154831E+02  0.00000000000E+00 0. -1.
         11    1    3    3    0    0  0.58440527280E-01  0.17468723807E+01  0.44932171710E+01  0.48212010140E+01  0.51100000000E-03 0. -1.
        -11    1    3    3    0    0 -0.32504008168E+02 -0.10756180311E+01 -0.17414015665E+02  0.36890587457E+02  0.51100000000E-03 0.  1.
        -12    1    3    3    0    0 -0.28180859601E+01 -0.46860858957E+01 -0.69166089462E+01  0.88170566980E+01  0.00000000000E+00 0.  1.
</event>
<event>
 7    1  0.5972636E-013  0.5052887E+02  0.7816164E-02  0.1300439E+00
        -11   -1    0    0    0    0  0.00000000000E+00  0.00000000000E+00  0.45593999997E+02  0.45594000000E+02  0.51100000000E-03 0. -1.
         11   -1    0    0    0    0 -0.00000000000E+00 -0.00000000000E+00 -0.45593999997E+02  0.45594000000E+02  0.51100000000E-03 0.  1.
    9900012    2    1    2    0    0  0.98175804225E+01  0.19186758649E+02 -0.34476774156E+02  0.50528873730E+02  0.30000042191E+02 0.  0.
         12    1    1    2    0    0 -0.98175804225E+01 -0.19186758649E+02  0.34476774156E+02  0.40659126270E+02  0.00000000000E+00 0. -1.
         11    1    3    3    0    0  0.40680934919E+01 -0.33903921828E+01  0.18437198986E+01  0.56074456874E+01  0.51100000000E-03 0. -1.
        -11    1    3    3    0    0  0.16460961586E+01  0.20132466707E+02 -0.22197412154E+02  0.30012513305E+02  0.51100000000E-03 0.  1.
        -12    1    3    3    0    0  0.41033907721E+01  0.24446841244E+01 -0.14123081900E+02  0.14908914738E+02  0.00000000000E+00 0.  1.
</event>
<event>
 7    1  0.5972636E-013  0.5052886E+02  0.7816164E-02  0.1300439E+00
        -11   -1    0    0    0    0  0.00000000000E+00  0.00000000000E+00  0.45593999997E+02  0.45594000000E+02  0.51100000000E-03 0. -1.
         11   -1    0    0    0    0 -0.00000000000E+00 -0.00000000000E+00 -0.45593999997E+02  0.45594000000E+02  0.51100000000E-03 0.  1.
    9900012    2    1    2    0    0 -0.85438265962E+01  0.17862901936E+02 -0.35511769436E+02  0.50528855802E+02  0.29999987694E+02 0.  0.
         12    1    1    2    0    0  0.85438265962E+01 -0.17862901936E+02  0.35511769436E+02  0.40659144198E+02  0.00000000000E+00 0. -1.
         11    1    3    3    0    0 -0.27317893213E+00  0.65491757651E+01  0.71398102040E-01  0.65552595587E+01  0.51100000000E-03 0. -1.
        -11    1    3    3    0    0 -0.21788518674E+01  0.12329530710E+02 -0.35663165548E+02  0.37797170531E+02  0.51100000000E-03 0.  1.
        -12    1    3    3    0    0 -0.60917957967E+01 -0.10158045397E+01  0.79998009974E-01  0.61764257118E+01  0.00000000000E+00 0.  1.
</event>
<event>
 7    1  0.5972636E-013  0.5052886E+02  0.7816164E-02  0.1300439E+00
        -11   -1    0    0    0    0  0.00000000000E+00  0.00000000000E+00  0.45593999997E+02  0.45594000000E+02  0.51100000000E-03 0.  1.
         11   -1    0    0    0    0 -0.00000000000E+00 -0.00000000000E+00 -0.45593999997E+02  0.45594000000E+02  0.51100000000E-03 0. -1.
    9900012    2    1    2    0    0 -0.37683453794E+01  0.35653652106E+02  0.19177655700E+02  0.50528858180E+02  0.29999994923E+02 0.  0.
         12    1    1    2    0    0  0.37683453794E+01 -0.35653652106E+02 -0.19177655700E+02  0.40659141820E+02  0.00000000000E+00 0. -1.
         11    1    3    3    0    0  0.95436370153E+01  0.24264687419E+02  0.13611270683E+02  0.29412969127E+02  0.51100000000E-03 0.  1.
        -11    1    3    3    0    0 -0.99819382262E+01  0.83095579472E+01 -0.11201257008E+01  0.13036200592E+02  0.51100000000E-03 0. -1.
         12    1    3    3    0    0 -0.33300441685E+01  0.30794067406E+01  0.66865107177E+01  0.80796884604E+01  0.00000000000E+00 0. -1.
</event>
<event>
 7    1  0.5972636E-013  0.5052886E+02  0.7816164E-02  0.1300439E+00
        -11   -1    0    0    0    0  0.00000000000E+00  0.00000000000E+00  0.45593999997E+02  0.45594000000E+02  0.51100000000E-03 0.  1.
         11   -1    0    0    0    0 -0.00000000000E+00 -0.00000000000E+00 -0.45593999997E+02  0.45594000000E+02  0.51100000000E-03 0. -1.
    9900012    2    1    2    0    0  0.17554260292E+02  0.10877416751E+02  0.35024211851E+02  0.50528860002E+02  0.30000000463E+02 0.  0.
         12    1    1    2    0    0 -0.17554260292E+02 -0.10877416751E+02 -0.35024211851E+02  0.40659139998E+02  0.00000000000E+00 0. -1.
         11    1    3    3    0    0 -0.29721129076E+01  0.20110070239E+01  0.10570615854E+01  0.37409870145E+01  0.51100000000E-03 0. -1.
        -11    1    3    3    0    0  0.14224947861E+02  0.16697450397E+02  0.25577581142E+02  0.33695202162E+02  0.51100000000E-03 0.  1.
        -12    1    3    3    0    0  0.63014253386E+01 -0.78310406696E+01  0.83895691234E+01  0.13092670825E+02  0.00000000000E+00 0.  1.
</event>
<event>
 7    1  0.5972636E-013  0.5052886E+02  0.7816164E-02  0.1300439E+00
        -11   -1    0    0    0    0  0.00000000000E+00  0.00000000000E+00  0.45593999997E+02  0.45594000000E+02  0.51100000000E-03 0.  1.
         11   -1    0    0    0    0 -0.00000000000E+00 -0.00000000000E+00 -0.45593999997E+02  0.45594000000E+02  0.51100000000E-03 0. -1.
    9900012    2    1    2    0    0  0.33005795726E+02  0.68536883858E+01  0.22733452840E+02  0.50528862355E+02  0.30000007614E+02 0.  0.
         12    1    1    2    0    0 -0.33005795726E+02 -0.68536883858E+01 -0.22733452840E+02  0.40659137645E+02  0.00000000000E+00 0. -1.
         11    1    3    3    0    0  0.11145146491E+02  0.11006143342E+02  0.11503450480E+02  0.19433961376E+02  0.51100000000E-03 0. -1.
        -11    1    3    3    0    0  0.16628764084E+02 -0.66992102570E+01 -0.57177374185E+00  0.17936614466E+02  0.51100000000E-03 0.  1.
        -12    1    3    3    0    0  0.52318851518E+01  0.25467553007E+01  0.11801776102E+02  0.13158286513E+02  0.00000000000E+00 0.  1.
</event>
<event>
 7    1  0.5972636E-013  0.5052886E+02  0.7816164E-02  0.1300439E+00
        -11   -1    0    0    0    0  0.00000000000E+00  0.00000000000E+00  0.45593999997E+02  0.45594000000E+02  0.51100000000E-03 0.  1.
         11   -1    0    0    0    0 -0.00000000000E+00 -0.00000000000E+00 -0.45593999997E+02  0.45594000000E+02  0.51100000000E-03 0. -1.
    9900012    2    1    2    0    0 -0.13878854339E+01 -0.23371775071E+02  0.33241531324E+02  0.50528862027E+02  0.30000006617E+02 0.  0.
         12    1    1    2    0    0  0.13878854339E+01  0.23371775071E+02 -0.33241531324E+02  0.40659137973E+02  0.00000000000E+00 0. -1.
         11    1    3    3    0    0 -0.31173122086E+01  0.38622788997E+01 -0.18234703203E+01  0.52877100880E+01  0.51100000000E-03 0. -1.
        -11    1    3    3    0    0 -0.18164312122E+01 -0.17066751553E+02  0.26060201787E+02  0.31204287339E+02  0.51100000000E-03 0.  1.
        -12    1    3    3    0    0  0.35458579869E+01 -0.10167302417E+02  0.90047998575E+01  0.14036864599E+02  0.00000000000E+00 0.  1.
</event>
<event>
 7    1  0.5972636E-013  0.5052887E+02  0.7816164E-02  0.1300439E+00
        -11   -1    0    0    0    0  0.00000000000E+00  0.00000000000E+00  0.45593999997E+02  0.45594000000E+02  0.51100000000E-03 0.  1.
         11   -1    0    0    0    0 -0.00000000000E+00 -0.00000000000E+00 -0.45593999997E+02  0.45594000000E+02  0.51100000000E-03 0. -1.
    9900012    2    1    2    0    0 -0.34762657505E+02 -0.20880815273E+02  0.29519834887E+01  0.50528868064E+02  0.30000024967E+02 0.  0.
         12    1    1    2    0    0  0.34762657505E+02  0.20880815273E+02 -0.29519834887E+01  0.40659131936E+02  0.00000000000E+00 0. -1.
         11    1    3    3    0    0 -0.20038101487E+00 -0.80250475626E+01  0.77143274221E+01  0.11133390713E+02  0.51100000000E-03 0. -1.
        -11    1    3    3    0    0 -0.33544054525E+02 -0.14955820922E+02 -0.40203846463E+01  0.36946497350E+02  0.51100000000E-03 0.  1.
        -12    1    3    3    0    0 -0.10182219651E+01  0.21000532116E+01 -0.74195928718E+00  0.24489800010E+01  0.00000000000E+00 0.  1.
</event>
<event>
 7    1  0.5972636E-013  0.5052885E+02  0.7816164E-02  0.1300439E+00
        -11   -1    0    0    0    0  0.00000000000E+00  0.00000000000E+00  0.45593999997E+02  0.45594000000E+02  0.51100000000E-03 0.  1.
         11   -1    0    0    0    0 -0.00000000000E+00 -0.00000000000E+00 -0.45593999997E+02  0.45594000000E+02  0.51100000000E-03 0. -1.
    9900012    2    1    2    0    0  0.24183553862E+02  0.12038307695E+02  0.30387513425E+02  0.50528854636E+02  0.29999984151E+02 0.  0.
         12    1    1    2    0    0 -0.24183553862E+02 -0.12038307695E+02 -0.30387513425E+02  0.40659145364E+02  0.00000000000E+00 0. -1.
         11    1    3    3    0    0  0.27084727380E+02  0.74273826236E+01  0.24774810997E+02  0.37450497060E+02  0.51100000000E-03 0. -1.
        -11    1    3    3    0    0 -0.67483986387E+01  0.40174840499E+01  0.43938412734E+01  0.89992723970E+01  0.51100000000E-03 0.  1.
        -12    1    3    3    0    0  0.38472251212E+01  0.59344102169E+00  0.12188611546E+01  0.40790851785E+01  0.00000000000E+00 0.  1.
</event>
<event>
 7    1  0.5972636E-013  0.5052886E+02  0.7816164E-02  0.1300439E+00
        -11   -1    0    0    0    0  0.00000000000E+00  0.00000000000E+00  0.45593999997E+02  0.45594000000E+02  0.51100000000E-03 0.  1.
         11   -1    0    0    0    0 -0.00000000000E+00 -0.00000000000E+00 -0.45593999997E+02  0.45594000000E+02  0.51100000000E-03 0. -1.
    9900012    2    1    2    0    0 -0.38952530854E+02 -0.71279487421E+01 -0.92227196878E+01  0.50528857465E+02  0.29999992752E+02 0.  0.
         12    1    1    2    0    0  0.38952530854E+02  0.71279487421E+01  0.92227196878E+01  0.40659142535E+02  0.00000000000E+00 0. -1.
         11    1    3    3    0    0 -0.19969003152E+02  0.76709276349E+01 -0.43392993883E+01  0.21827362120E+02  0.51100000000E-03 0. -1.
        -11    1    3    3    0    0 -0.18205413905E+02 -0.16729767189E+02 -0.15526069286E+01  0.24773631025E+02  0.51100000000E-03 0.  1.
         12    1    3    3    0    0 -0.77811379763E+00  0.19308908119E+01 -0.33308133709E+01  0.39278643206E+01  0.00000000000E+00 0. -1.
</event>
<event>
 7    1  0.5972636E-013  0.5052886E+02  0.7816164E-02  0.1300439E+00
        -11   -1    0    0    0    0  0.00000000000E+00  0.00000000000E+00  0.45593999997E+02  0.45594000000E+02  0.51100000000E-03 0.  1.
         11   -1    0    0    0    0 -0.00000000000E+00 -0.00000000000E+00 -0.45593999997E+02  0.45594000000E+02  0.51100000000E-03 0. -1.
    9900012    2    1    2    0    0  0.11463320278E+02 -0.24959113887E+02  0.29980001407E+02  0.50528861271E+02  0.30000004318E+02 0.  0.
         12    1    1    2    0    0 -0.11463320278E+02  0.24959113887E+02 -0.29980001407E+02  0.40659138729E+02  0.00000000000E+00 0. -1.
         11    1    3    3    0    0 -0.18974943375E+01 -0.93612997221E+01 -0.11810128646E+00  0.95524010292E+01  0.51100000000E-03 0. -1.
        -11    1    3    3    0    0  0.96900217186E+01 -0.18767885858E+02  0.29208577138E+02  0.36045402469E+02  0.51100000000E-03 0.  1.
        -12    1    3    3    0    0  0.36707928972E+01  0.31700716935E+01  0.88952555591E+00  0.49310577720E+01  0.00000000000E+00 0.  1.
</event>
<event>
 7    1  0.5972636E-013  0.5052887E+02  0.7816164E-02  0.1300439E+00
        -11   -1    0    0    0    0  0.00000000000E+00  0.00000000000E+00  0.45593999997E+02  0.45594000000E+02  0.51100000000E-03 0.  1.
         11   -1    0    0    0    0 -0.00000000000E+00 -0.00000000000E+00 -0.45593999997E+02  0.45594000000E+02  0.51100000000E-03 0. -1.
    9900012    2    1    2    0    0  0.16619835318E+01 -0.26089264741E+02  0.31140860223E+02  0.50528866962E+02  0.30000021617E+02 0.  0.
         12    1    1    2    0    0 -0.16619835318E+01  0.26089264741E+02 -0.31140860223E+02  0.40659133038E+02  0.00000000000E+00 0. -1.
         11    1    3    3    0    0  0.62349527065E+01  0.14608222346E+01 -0.21584312091E+01  0.67577705198E+01  0.51100000000E-03 0. -1.
        -11    1    3    3    0    0 -0.27813848879E+01 -0.82132576855E+01  0.73990049668E+01  0.11399077965E+02  0.51100000000E-03 0.  1.
         12    1    3    3    0    0 -0.17915842867E+01 -0.19336829290E+02  0.25900286465E+02  0.32372018476E+02  0.00000000000E+00 0. -1.
</event>
<event>
 7    1  0.5972636E-013  0.5052883E+02  0.7816164E-02  0.1300439E+00
        -11   -1    0    0    0    0  0.00000000000E+00  0.00000000000E+00  0.45593999997E+02  0.45594000000E+02  0.51100000000E-03 0.  1.
         11   -1    0    0    0    0 -0.00000000000E+00 -0.00000000000E+00 -0.45593999997E+02  0.45594000000E+02  0.51100000000E-03 0. -1.
    9900012    2    1    2    0    0 -0.15360052232E+02 -0.27843228759E+01  0.37543097578E+02  0.50528833331E+02  0.29999919394E+02 0.  0.
         12    1    1    2    0    0  0.15360052232E+02  0.27843228759E+01 -0.37543097578E+02  0.40659166669E+02  0.00000000000E+00 0. -1.
         11    1    3    3    0    0 -0.57824777695E+01 -0.98523352116E+01  0.17599071193E+02  0.20981726940E+02  0.51100000000E-03 0. -1.
        -11    1    3    3    0    0 -0.48556080423E+01  0.12461222906E+02  0.17389051839E+02  0.21937140422E+02  0.51100000000E-03 0.  1.
        -12    1    3    3    0    0 -0.47219664201E+01 -0.53932105698E+01  0.25549745452E+01  0.76099659690E+01  0.00000000000E+00 0.  1.
</event>
<event>
 7    1  0.5972636E-013  0.5052886E+02  0.7816164E-02  0.1300439E+00
        -11   -1    0    0    0    0  0.00000000000E+00  0.00000000000E+00  0.45593999997E+02  0.45594000000E+02  0.51100000000E-03 0.  1.
         11   -1    0    0    0    0 -0.00000000000E+00 -0.00000000000E+00 -0.45593999997E+02  0.45594000000E+02  0.51100000000E-03 0. -1.
    9900012    2    1    2    0    0  0.24846987281E+02  0.32179144045E+01  0.32022453392E+02  0.50528864848E+02  0.30000015192E+02 0.  0.
         12    1    1    2    0    0 -0.24846987281E+02 -0.32179144045E+01 -0.32022453392E+02  0.40659135152E+02  0.00000000000E+00 0. -1.
         11    1    3    3    0    0 -0.34608808954E+01 -0.44038864217E+01  0.18450386728E+01  0.58971247360E+01  0.51100000000E-03 0. -1.
        -11    1    3    3    0    0  0.18658268044E+02  0.10466503346E+02  0.26172928105E+02  0.33803858131E+02  0.51100000000E-03 0.  1.
         12    1    3    3    0    0  0.96496001332E+01 -0.28447025201E+01  0.40044866144E+01  0.10827881981E+02  0.00000000000E+00 0. -1.
</event>
<event>
 7    1  0.5972636E-013  0.5052887E+02  0.7816164E-02  0.1300439E+00
        -11   -1    0    0    0    0  0.00000000000E+00  0.00000000000E+00  0.45593999997E+02  0.45594000000E+02  0.51100000000E-03 0.  1.
         11   -1    0    0    0    0 -0.00000000000E+00 -0.00000000000E+00 -0.45593999997E+02  0.45594000000E+02  0.51100000000E-03 0. -1.
    9900012    2    1    2    0    0  0.34966809425E+02 -0.18709485529E+02  0.89689567711E+01  0.50528870697E+02  0.30000032971E+02 0.  0.
         12    1    1    2    0    0 -0.34966809425E+02  0.18709485529E+02 -0.89689567711E+01  0.40659129303E+02  0.00000000000E+00 0. -1.
         11    1    3    3    0    0  0.21404449268E+01 -0.10742596793E+02  0.10064778818E+02  0.14875639928E+02  0.51100000000E-03 0. -1.
        -11    1    3    3    0    0  0.71325131460E+01  0.66911573072E+00  0.37984677655E+01  0.81085644393E+01  0.51100000000E-03 0.  1.
         12    1    3    3    0    0  0.25693851352E+02 -0.86360044663E+01 -0.48942898127E+01  0.27544666330E+02  0.00000000000E+00 0. -1.
</event>
<event>
 7    1  0.5972636E-013  0.5052886E+02  0.7816164E-02  0.1300439E+00
        -11   -1    0    0    0    0  0.00000000000E+00  0.00000000000E+00  0.45593999997E+02  0.45594000000E+02  0.51100000000E-03 0.  1.
         11   -1    0    0    0    0 -0.00000000000E+00 -0.00000000000E+00 -0.45593999997E+02  0.45594000000E+02  0.51100000000E-03 0. -1.
    9900012    2    1    2    0    0 -0.15063797519E+02  0.37750754507E+02  0.10620975652E+01  0.50528861878E+02  0.30000006165E+02 0.  0.
         12    1    1    2    0    0  0.15063797519E+02 -0.37750754507E+02 -0.10620975652E+01  0.40659138122E+02  0.00000000000E+00 0. -1.
         11    1    3    3    0    0 -0.15357905913E+02  0.16296352474E+02  0.47237478864E+01  0.22885588748E+02  0.51100000000E-03 0.  1.
        -11    1    3    3    0    0  0.49276546590E+01  0.21884599286E+01  0.36621190914E+01  0.65178411916E+01  0.51100000000E-03 0. -1.
        -12    1    3    3    0    0 -0.46335462648E+01  0.19265942104E+02 -0.73237694126E+01  0.21125431938E+02  0.00000000000E+00 0.  1.
</event>
<event>
 7    1  0.5972636E-013  0.5052890E+02  0.7816164E-02  0.1300439E+00
        -11   -1    0    0    0    0  0.00000000000E+00  0.00000000000E+00  0.45593999997E+02  0.45594000000E+02  0.51100000000E-03 0.  1.
         11   -1    0    0    0    0 -0.00000000000E+00 -0.00000000000E+00 -0.45593999997E+02  0.45594000000E+02  0.51100000000E-03 0. -1.
    9900012    2    1    2    0    0  0.25692765600E+02  0.97075427049E+01  0.29980122167E+02  0.50528901206E+02  0.30000125707E+02 0.  0.
         12    1    1    2    0    0 -0.25692765600E+02 -0.97075427049E+01 -0.29980122167E+02  0.40659098794E+02  0.00000000000E+00 0. -1.
         11    1    3    3    0    0  0.20492976265E+02  0.10320951795E+02  0.29676042556E+02  0.37512019730E+02  0.51100000000E-03 0.  1.
        -11    1    3    3    0    0  0.16893449278E+00  0.52201400313E+01 -0.61524443342E+00  0.52589853378E+01  0.51100000000E-03 0. -1.
        -12    1    3    3    0    0  0.50308548420E+01 -0.58335491216E+01  0.91932404436E+00  0.77578961384E+01  0.00000000000E+00 0.  1.
</event>
<event>
 7    1  0.5972636E-013  0.5052883E+02  0.7816164E-02  0.1300439E+00
        -11   -1    0    0    0    0  0.00000000000E+00  0.00000000000E+00  0.45593999997E+02  0.45594000000E+02  0.51100000000E-03 0.  1.
         11   -1    0    0    0    0 -0.00000000000E+00 -0.00000000000E+00 -0.45593999997E+02  0.45594000000E+02  0.51100000000E-03 0. -1.
    9900012    2    1    2    0    0 -0.38786402202E+02 -0.60784481610E+01  0.10575222482E+02  0.50528833035E+02  0.29999918492E+02 0.  0.
         12    1    1    2    0    0  0.38786402202E+02  0.60784481610E+01 -0.10575222482E+02  0.40659166965E+02  0.00000000000E+00 0. -1.
         11    1    3    3    0    0 -0.27990203600E+02 -0.12849720619E+02  0.15188771200E+02  0.34340436636E+02  0.51100000000E-03 0. -1.
        -11    1    3    3    0    0 -0.84282270631E+01  0.35651452551E+01  0.11051554723E+01  0.92177351338E+01  0.51100000000E-03 0.  1.
         12    1    3    3    0    0 -0.23679715385E+01  0.32061272029E+01 -0.57187041904E+01  0.69706612646E+01  0.00000000000E+00 0. -1.
</event>
<event>
 7    1  0.5972636E-013  0.5052886E+02  0.7816164E-02  0.1300439E+00
        -11   -1    0    0    0    0  0.00000000000E+00  0.00000000000E+00  0.45593999997E+02  0.45594000000E+02  0.51100000000E-03 0.  1.
         11   -1    0    0    0    0 -0.00000000000E+00 -0.00000000000E+00 -0.45593999997E+02  0.45594000000E+02  0.51100000000E-03 0. -1.
    9900012    2    1    2    0    0 -0.20675196525E+02 -0.88666767710E+01  0.33868631944E+02  0.50528856648E+02  0.29999990268E+02 0.  0.
         12    1    1    2    0    0  0.20675196525E+02  0.88666767710E+01 -0.33868631944E+02  0.40659143352E+02  0.00000000000E+00 0. -1.
         11    1    3    3    0    0 -0.14195512370E+02 -0.75224825904E+01  0.21581985999E+01  0.16209816077E+02  0.51100000000E-03 0. -1.
        -11    1    3    3    0    0 -0.76346763004E+01  0.25173174006E+01  0.26726264902E+02  0.27909109713E+02  0.51100000000E-03 0.  1.
        -12    1    3    3    0    0  0.11549921454E+01 -0.38615115812E+01  0.49841684428E+01  0.64099308587E+01  0.00000000000E+00 0.  1.
</event>
<event>
 7    1  0.5972636E-013  0.5052886E+02  0.7816164E-02  0.1300439E+00
        -11   -1    0    0    0    0  0.00000000000E+00  0.00000000000E+00  0.45593999997E+02  0.45594000000E+02  0.51100000000E-03 0.  1.
         11   -1    0    0    0    0 -0.00000000000E+00 -0.00000000000E+00 -0.45593999997E+02  0.45594000000E+02  0.51100000000E-03 0. -1.
    9900012    2    1    2    0    0  0.14450271023E+02 -0.37940398220E+02  0.22093815277E+01  0.50528861833E+02  0.30000006029E+02 0.  0.
         12    1    1    2    0    0 -0.14450271023E+02  0.37940398220E+02 -0.22093815277E+01  0.40659138167E+02  0.00000000000E+00 0. -1.
         11    1    3    3    0    0  0.96974631228E+01 -0.38883317262E+00 -0.33652926007E+01  0.10272155412E+02  0.51100000000E-03 0. -1.
        -11    1    3    3    0    0  0.29656926290E+01 -0.22706283587E+02 -0.28798800619E+01  0.23079522451E+02  0.51100000000E-03 0.  1.
         12    1    3    3    0    0  0.17871152709E+01 -0.14845281460E+02  0.84545541903E+01  0.17177183971E+02  0.00000000000E+00 0. -1.
</event>
<event>
 7    1  0.5972636E-013  0.5052886E+02  0.7816164E-02  0.1300439E+00
        -11   -1    0    0    0    0  0.00000000000E+00  0.00000000000E+00  0.45593999997E+02  0.45594000000E+02  0.51100000000E-03 0.  1.
         11   -1    0    0    0    0 -0.00000000000E+00 -0.00000000000E+00 -0.45593999997E+02  0.45594000000E+02  0.51100000000E-03 0. -1.
    9900012    2    1    2    0    0 -0.34434083703E+01  0.18180916577E+02  0.36204458382E+02  0.50528860861E+02  0.30000003073E+02 0.  0.
         12    1    1    2    0    0  0.34434083703E+01 -0.18180916577E+02 -0.36204458382E+02  0.40659139139E+02  0.00000000000E+00 0. -1.
         11    1    3    3    0    0 -0.42558778659E+01  0.33423981653E+01  0.22889730448E+01  0.58756718565E+01  0.51100000000E-03 0. -1.
        -11    1    3    3    0    0  0.21668467032E+01 -0.67057461367E+01  0.11831904258E+02  0.13771572696E+02  0.51100000000E-03 0.  1.
        -12    1    3    3    0    0 -0.13543772076E+01  0.21544264548E+02  0.22083581079E+02  0.30881616308E+02  0.00000000000E+00 0.  1.
</event>
<event>
 7    1  0.5972636E-013  0.5052886E+02  0.7816164E-02  0.1300439E+00
        -11   -1    0    0    0    0  0.00000000000E+00  0.00000000000E+00  0.45593999997E+02  0.45594000000E+02  0.51100000000E-03 0.  1.
         11   -1    0    0    0    0 -0.00000000000E+00 -0.00000000000E+00 -0.45593999997E+02  0.45594000000E+02  0.51100000000E-03 0. -1.
    9900012    2    1    2    0    0 -0.15186911207E+02  0.22916496489E+02  0.29955930304E+02  0.50528857808E+02  0.29999993794E+02 0.  0.
         12    1    1    2    0    0  0.15186911207E+02 -0.22916496489E+02 -0.29955930304E+02  0.40659142192E+02  0.00000000000E+00 0. -1.
         11    1    3    3    0    0 -0.66725599961E+01  0.47239625236E+01 -0.39728701686E+01  0.90896961701E+01  0.51100000000E-03 0. -1.
        -11    1    3    3    0    0 -0.10089515397E+02  0.17162455992E+02  0.23308819867E+02  0.30653699621E+02  0.51100000000E-03 0.  1.
         12    1    3    3    0    0  0.15751641856E+01  0.10300779733E+01  0.10619980606E+02  0.10785462017E+02  0.00000000000E+00 0. -1.
</event>
<event>
 7    1  0.5972636E-013  0.5052887E+02  0.7816164E-02  0.1300439E+00
        -11   -1    0    0    0    0  0.00000000000E+00  0.00000000000E+00  0.45593999997E+02  0.45594000000E+02  0.51100000000E-03 0.  1.
         11   -1    0    0    0    0 -0.00000000000E+00 -0.00000000000E+00 -0.45593999997E+02  0.45594000000E+02  0.51100000000E-03 0. -1.
    9900012    2    1    2    0    0  0.32657702918E+02  0.19364887957E+02 -0.14547854239E+02  0.50528874230E+02  0.30000043708E+02 0.  0.
         12    1    1    2    0    0 -0.32657702918E+02 -0.19364887957E+02  0.14547854239E+02  0.40659125770E+02  0.00000000000E+00 0. -1.
         11    1    3    3    0    0 -0.26910747114E+01  0.95865209070E+01 -0.56793119267E+01  0.11462890143E+02  0.51100000000E-03 0. -1.
        -11    1    3    3    0    0  0.34075614078E+02  0.80614729145E+01 -0.10292635475E+02  0.36497577531E+02  0.51100000000E-03 0.  1.
        -12    1    3    3    0    0  0.12731635511E+01  0.17168941359E+01  0.14240931624E+01  0.25684065560E+01  0.00000000000E+00 0.  1.
</event>
<event>
 7    1  0.5972636E-013  0.5052887E+02  0.7816164E-02  0.1300439E+00
        -11   -1    0    0    0    0  0.00000000000E+00  0.00000000000E+00  0.45593999997E+02  0.45594000000E+02  0.51100000000E-03 0. -1.
         11   -1    0    0    0    0 -0.00000000000E+00 -0.00000000000E+00 -0.45593999997E+02  0.45594000000E+02  0.51100000000E-03 0.  1.
    9900012    2    1    2    0    0  0.39530971346E+02 -0.85853501804E+01  0.40937709169E+01  0.50528869492E+02  0.30000029309E+02 0.  0.
         12    1    1    2    0    0 -0.39530971346E+02  0.85853501804E+01 -0.40937709169E+01  0.40659130508E+02  0.00000000000E+00 0. -1.
         11    1    3    3    0    0  0.11470288252E+02 -0.74895537725E+01  0.37001609157E+00  0.13703935218E+02  0.51100000000E-03 0. -1.
        -11    1    3    3    0    0  0.24748894141E+02  0.84516436612E+01  0.50419533197E+01  0.26633800617E+02  0.51100000000E-03 0.  1.
        -12    1    3    3    0    0  0.33117889535E+01 -0.95474400691E+01 -0.13181984943E+01  0.10191133657E+02  0.00000000000E+00 0.  1.
</event>
<event>
 7    1  0.5972636E-013  0.5052886E+02  0.7816164E-02  0.1300439E+00
        -11   -1    0    0    0    0  0.00000000000E+00  0.00000000000E+00  0.45593999997E+02  0.45594000000E+02  0.51100000000E-03 0.  1.
         11   -1    0    0    0    0 -0.00000000000E+00 -0.00000000000E+00 -0.45593999997E+02  0.45594000000E+02  0.51100000000E-03 0. -1.
    9900012    2    1    2    0    0 -0.17882750998E+02 -0.29491155161E+02  0.21532405275E+02  0.50528862123E+02  0.30000006908E+02 0.  0.
         12    1    1    2    0    0  0.17882750998E+02  0.29491155161E+02 -0.21532405275E+02  0.40659137877E+02  0.00000000000E+00 0. -1.
         11    1    3    3    0    0 -0.76350657339E+01 -0.10631026380E+02 -0.45599310064E+01  0.13860228053E+02  0.51100000000E-03 0. -1.
        -11    1    3    3    0    0 -0.12076148530E+02 -0.16205336239E+02  0.26598618039E+02  0.33405579890E+02  0.51100000000E-03 0.  1.
         12    1    3    3    0    0  0.18284632656E+01 -0.26547925430E+01 -0.50628175806E+00  0.32630541795E+01  0.00000000000E+00 0. -1.
</event>
<event>
 7    1  0.5972636E-013  0.5052886E+02  0.7816164E-02  0.1300439E+00
        -11   -1    0    0    0    0  0.00000000000E+00  0.00000000000E+00  0.45593999997E+02  0.45594000000E+02  0.51100000000E-03 0.  1.
         11   -1    0    0    0    0 -0.00000000000E+00 -0.00000000000E+00 -0.45593999997E+02  0.45594000000E+02  0.51100000000E-03 0. -1.
    9900012    2    1    2    0    0  0.13298072209E+02  0.83547057520E+01  0.37503676236E+02  0.50528861250E+02  0.30000004256E+02 0.  0.
         12    1    1    2    0    0 -0.13298072209E+02 -0.83547057520E+01 -0.37503676236E+02  0.40659138750E+02  0.00000000000E+00 0. -1.
         11    1    3    3    0    0 -0.66216214102E+01  0.44103844143E+00  0.78209991127E+01  0.10257115208E+02  0.51100000000E-03 0. -1.
        -11    1    3    3    0    0  0.17755382702E+02  0.28347279700E+01  0.11678389580E+02  0.21440011218E+02  0.51100000000E-03 0.  1.
        -12    1    3    3    0    0  0.21643109174E+01  0.50789393406E+01  0.18004287543E+02  0.18831734824E+02  0.00000000000E+00 0.  1.
</event>
<event>
 7    1  0.5972636E-013  0.5052885E+02  0.7816164E-02  0.1300439E+00
        -11   -1    0    0    0    0  0.00000000000E+00  0.00000000000E+00  0.45593999997E+02  0.45594000000E+02  0.51100000000E-03 0. -1.
         11   -1    0    0    0    0 -0.00000000000E+00 -0.00000000000E+00 -0.45593999997E+02  0.45594000000E+02  0.51100000000E-03 0.  1.
    9900012    2    1    2    0    0 -0.15403956275E+02  0.56937575081E+01 -0.37194966319E+02  0.50528852653E+02  0.29999978124E+02 0.  0.
         12    1    1    2    0    0  0.15403956275E+02 -0.56937575081E+01  0.37194966319E+02  0.40659147347E+02  0.00000000000E+00 0. -1.
         11    1    3    3    0    0 -0.12347569812E+01  0.11652463536E+02 -0.95554694614E+01  0.15119905031E+02  0.51100000000E-03 0. -1.
        -11    1    3    3    0    0 -0.90051279874E+01 -0.11283749952E+02 -0.15493402443E+02  0.21176894545E+02  0.51100000000E-03 0.  1.
         12    1    3    3    0    0 -0.51640713064E+01  0.53250439236E+01 -0.12146094415E+02  0.14232053077E+02  0.00000000000E+00 0. -1.
</event>
<event>
 7    1  0.5972636E-013  0.5052885E+02  0.7816164E-02  0.1300439E+00
        -11   -1    0    0    0    0  0.00000000000E+00  0.00000000000E+00  0.45593999997E+02  0.45594000000E+02  0.51100000000E-03 0. -1.
         11   -1    0    0    0    0 -0.00000000000E+00 -0.00000000000E+00 -0.45593999997E+02  0.45594000000E+02  0.51100000000E-03 0.  1.
    9900012    2    1    2    0    0  0.19235806326E+02 -0.30720611049E+02 -0.18422648638E+02  0.50528853784E+02  0.29999981560E+02 0.  0.
         12    1    1    2    0    0 -0.19235806326E+02  0.30720611049E+02  0.18422648638E+02  0.40659146216E+02  0.00000000000E+00 0. -1.
         11    1    3    3    0    0  0.61168214642E+01 -0.20004379204E+02 -0.22434988311E+02  0.30674409414E+02  0.51100000000E-03 0. -1.
        -11    1    3    3    0    0  0.22385292436E+01 -0.31716292868E+01 -0.29681438696E+01  0.48867293560E+01  0.51100000000E-03 0.  1.
         12    1    3    3    0    0  0.10880455618E+02 -0.75446025585E+01  0.69804835428E+01  0.14967715013E+02  0.00000000000E+00 0. -1.
</event>
<event>
 7    1  0.5972636E-013  0.5052884E+02  0.7816164E-02  0.1300439E+00
        -11   -1    0    0    0    0  0.00000000000E+00  0.00000000000E+00  0.45593999997E+02  0.45594000000E+02  0.51100000000E-03 0.  1.
         11   -1    0    0    0    0 -0.00000000000E+00 -0.00000000000E+00 -0.45593999997E+02  0.45594000000E+02  0.51100000000E-03 0. -1.
    9900012    2    1    2    0    0 -0.30636033088E+02 -0.10994728928E+02  0.24366299389E+02  0.50528841948E+02  0.29999945586E+02 0.  0.
         12    1    1    2    0    0  0.30636033088E+02  0.10994728928E+02 -0.24366299389E+02  0.40659158052E+02  0.00000000000E+00 0. -1.
         11    1    3    3    0    0 -0.12450897862E+02  0.13611060692E+01  0.13566803986E+02  0.18464442530E+02  0.51100000000E-03 0. -1.
        -11    1    3    3    0    0 -0.20827111099E+02 -0.14030803675E+02  0.51921807353E+01  0.25643532314E+02  0.51100000000E-03 0.  1.
        -12    1    3    3    0    0  0.26419758727E+01  0.16749686779E+01  0.56073146679E+01  0.64208671041E+01  0.00000000000E+00 0.  1.
</event>
<event>
 7    1  0.5972636E-013  0.5052886E+02  0.7816164E-02  0.1300439E+00
        -11   -1    0    0    0    0  0.00000000000E+00  0.00000000000E+00  0.45593999997E+02  0.45594000000E+02  0.51100000000E-03 0. -1.
         11   -1    0    0    0    0 -0.00000000000E+00 -0.00000000000E+00 -0.45593999997E+02  0.45594000000E+02  0.51100000000E-03 0.  1.
    9900012    2    1    2    0    0  0.23816227940E+02 -0.30239183419E+02 -0.13097513279E+02  0.50528858577E+02  0.29999996131E+02 0.  0.
         12    1    1    2    0    0 -0.23816227940E+02  0.30239183419E+02  0.13097513279E+02  0.40659141423E+02  0.00000000000E+00 0. -1.
         11    1    3    3    0    0  0.71486617193E+01 -0.29497085194E+01 -0.14762411583E+02  0.16665321501E+02  0.51100000000E-03 0. -1.
        -11    1    3    3    0    0  0.37971170050E+01 -0.54069881365E+01  0.49628423216E+01  0.82633783907E+01  0.51100000000E-03 0.  1.
         12    1    3    3    0    0  0.12870449216E+02 -0.21882486763E+02 -0.32979440169E+01  0.25600158685E+02  0.00000000000E+00 0. -1.
</event>
<event>
 7    1  0.5972636E-013  0.5052885E+02  0.7816164E-02  0.1300439E+00
        -11   -1    0    0    0    0  0.00000000000E+00  0.00000000000E+00  0.45593999997E+02  0.45594000000E+02  0.51100000000E-03 0.  1.
         11   -1    0    0    0    0 -0.00000000000E+00 -0.00000000000E+00 -0.45593999997E+02  0.45594000000E+02  0.51100000000E-03 0. -1.
    9900012    2    1    2    0    0 -0.60607697728E+01  0.37134952684E+01  0.40033033325E+02  0.50528846854E+02  0.29999960498E+02 0.  0.
         12    1    1    2    0    0  0.60607697728E+01 -0.37134952684E+01 -0.40033033325E+02  0.40659153146E+02  0.00000000000E+00 0. -1.
         11    1    3    3    0    0 -0.24383981628E+01 -0.97335657084E+01  0.53772638663E+01  0.11384333707E+02  0.51100000000E-03 0. -1.
        -11    1    3    3    0    0 -0.16938847370E+01  0.14526212489E+02  0.33700568341E+02  0.36737016775E+02  0.51100000000E-03 0.  1.
        -12    1    3    3    0    0 -0.19284868730E+01 -0.10791515125E+01  0.95520111744E+00  0.24074963720E+01  0.00000000000E+00 0.  1.
</event>
<event>
 7    1  0.5972636E-013  0.5052888E+02  0.7816164E-02  0.1300439E+00
        -11   -1    0    0    0    0  0.00000000000E+00  0.00000000000E+00  0.45593999997E+02  0.45594000000E+02  0.51100000000E-03 0.  1.
         11   -1    0    0    0    0 -0.00000000000E+00 -0.00000000000E+00 -0.45593999997E+02  0.45594000000E+02  0.51100000000E-03 0. -1.
    9900012    2    1    2    0    0 -0.37273640054E+02  0.17518060818E+01  0.16148403981E+02  0.50528880253E+02  0.30000062018E+02 0.  0.
         12    1    1    2    0    0  0.37273640054E+02 -0.17518060818E+01 -0.16148403981E+02  0.40659119747E+02  0.00000000000E+00 0. -1.
         11    1    3    3    0    0  0.24592096371E+01 -0.14105458113E+01 -0.16026947734E+01  0.32566827175E+01  0.51100000000E-03 0. -1.
        -11    1    3    3    0    0 -0.35915323640E+02 -0.88319106093E+00  0.20176384631E+02  0.41204089550E+02  0.51100000000E-03 0.  1.
        -12    1    3    3    0    0 -0.38175260507E+01  0.40455429540E+01 -0.24252858764E+01  0.60681079855E+01  0.00000000000E+00 0.  1.
</event>
<event>
 7    1  0.5972636E-013  0.5052886E+02  0.7816164E-02  0.1300439E+00
        -11   -1    0    0    0    0  0.00000000000E+00  0.00000000000E+00  0.45593999997E+02  0.45594000000E+02  0.51100000000E-03 0. -1.
         11   -1    0    0    0    0 -0.00000000000E+00 -0.00000000000E+00 -0.45593999997E+02  0.45594000000E+02  0.51100000000E-03 0.  1.
    9900012    2    1    2    0    0  0.18388212822E+02 -0.13579284054E+02 -0.33625028765E+02  0.50528857293E+02  0.29999992228E+02 0.  0.
         12    1    1    2    0    0 -0.18388212822E+02  0.13579284054E+02  0.33625028765E+02  0.40659142707E+02  0.00000000000E+00 0. -1.
         11    1    3    3    0    0 -0.63950761648E+01 -0.41205917030E+01 -0.10869959123E+01  0.76849095968E+01  0.51100000000E-03 0. -1.
        -11    1    3    3    0    0  0.70201645157E+01 -0.27341069760E+01 -0.39092888931E+01  0.84876728668E+01  0.51100000000E-03 0.  1.
         12    1    3    3    0    0  0.17763124471E+02 -0.67245853751E+01 -0.28628743960E+02  0.34356274829E+02  0.00000000000E+00 0. -1.
</event>
<event>
 7    1  0.5972636E-013  0.5052886E+02  0.7816164E-02  0.1300439E+00
        -11   -1    0    0    0    0  0.00000000000E+00  0.00000000000E+00  0.45593999997E+02  0.45594000000E+02  0.51100000000E-03 0.  1.
         11   -1    0    0    0    0 -0.00000000000E+00 -0.00000000000E+00 -0.45593999997E+02  0.45594000000E+02  0.51100000000E-03 0. -1.
    9900012    2    1    2    0    0  0.15896245933E+02  0.34634008032E+02  0.14176056986E+02  0.50528859099E+02  0.29999997718E+02 0.  0.
         12    1    1    2    0    0 -0.15896245933E+02 -0.34634008032E+02 -0.14176056986E+02  0.40659140901E+02  0.00000000000E+00 0. -1.
         11    1    3    3    0    0 -0.81144841511E+00 -0.67596528263E+00  0.77514952717E+00  0.13100513899E+01  0.51100000000E-03 0. -1.
        -11    1    3    3    0    0  0.88911201103E+00  0.15113647100E+02 -0.67701967289E+01  0.16584583590E+02  0.51100000000E-03 0.  1.
        -12    1    3    3    0    0  0.15818582337E+02  0.20196326214E+02  0.20171104188E+02  0.32634224120E+02  0.00000000000E+00 0.  1.
</event>
<event>
 7    1  0.5972636E-013  0.5052886E+02  0.7816164E-02  0.1300439E+00
        -11   -1    0    0    0    0  0.00000000000E+00  0.00000000000E+00  0.45593999997E+02  0.45594000000E+02  0.51100000000E-03 0.  1.
         11   -1    0    0    0    0 -0.00000000000E+00 -0.00000000000E+00 -0.45593999997E+02  0.45594000000E+02  0.51100000000E-03 0. -1.
    9900012    2    1    2    0    0  0.35481699036E+02 -0.19193721774E+02  0.50809442718E+01  0.50528856911E+02  0.29999991068E+02 0.  0.
         12    1    1    2    0    0 -0.35481699036E+02  0.19193721774E+02 -0.50809442718E+01  0.40659143089E+02  0.00000000000E+00 0. -1.
         11    1    3    3    0    0  0.82031932947E+01 -0.88251838948E+01 -0.81092281340E+01  0.14523630132E+02  0.51100000000E-03 0. -1.
        -11    1    3    3    0    0  0.28346799416E+02 -0.11413396329E+02  0.14674426259E+02  0.33899047762E+02  0.51100000000E-03 0.  1.
        -12    1    3    3    0    0 -0.10682936746E+01  0.10448584495E+01 -0.14842538532E+01  0.21061790179E+01  0.00000000000E+00 0.  1.
</event>
<event>
 7    1  0.5972636E-013  0.5052886E+02  0.7816164E-02  0.1300439E+00
        -11   -1    0    0    0    0  0.00000000000E+00  0.00000000000E+00  0.45593999997E+02  0.45594000000E+02  0.51100000000E-03 0. -1.
         11   -1    0    0    0    0 -0.00000000000E+00 -0.00000000000E+00 -0.45593999997E+02  0.45594000000E+02  0.51100000000E-03 0.  1.
    9900012    2    1    2    0    0  0.26115735994E+02  0.10590775712E+02 -0.29308182295E+02  0.50528859009E+02  0.29999997444E+02 0.  0.
         12    1    1    2    0    0 -0.26115735994E+02 -0.10590775712E+02  0.29308182295E+02  0.40659140991E+02  0.00000000000E+00 0. -1.
         11    1    3    3    0    0 -0.53268568788E+01  0.43779762723E+01 -0.10186519621E+02  0.12300701716E+02  0.51100000000E-03 0. -1.
        -11    1    3    3    0    0  0.66415045398E+01 -0.64729325850E+00 -0.98211370325E+00  0.67448586866E+01  0.51100000000E-03 0.  1.
         12    1    3    3    0    0  0.24801088333E+02  0.68600926982E+01 -0.18139548971E+02  0.31483298607E+02  0.00000000000E+00 0. -1.
</event>
<event>
 7    1  0.5972636E-013  0.5052886E+02  0.7816164E-02  0.1300439E+00
        -11   -1    0    0    0    0  0.00000000000E+00  0.00000000000E+00  0.45593999997E+02  0.45594000000E+02  0.51100000000E-03 0.  1.
         11   -1    0    0    0    0 -0.00000000000E+00 -0.00000000000E+00 -0.45593999997E+02  0.45594000000E+02  0.51100000000E-03 0. -1.
    9900012    2    1    2    0    0  0.10355946071E+02 -0.56492190597E+01  0.38910234939E+02  0.50528859847E+02  0.29999999990E+02 0.  0.
         12    1    1    2    0    0 -0.10355946071E+02  0.56492190597E+01 -0.38910234939E+02  0.40659140153E+02  0.00000000000E+00 0. -1.
         11    1    3    3    0    0 -0.43706840303E+01 -0.43866669242E+01  0.13126510047E+01  0.63299904043E+01  0.51100000000E-03 0. -1.
        -11    1    3    3    0    0  0.14714520749E+02 -0.77769377522E+01  0.28608108457E+02  0.33097156244E+02  0.51100000000E-03 0.  1.
        -12    1    3    3    0    0  0.12109353172E-01  0.65143856167E+01  0.89894754766E+01  0.11101713199E+02  0.00000000000E+00 0.  1.
</event>
<event>
 7    1  0.5972636E-013  0.5052886E+02  0.7816164E-02  0.1300439E+00
        -11   -1    0    0    0    0  0.00000000000E+00  0.00000000000E+00  0.45593999997E+02  0.45594000000E+02  0.51100000000E-03 0.  1.
         11   -1    0    0    0    0 -0.00000000000E+00 -0.00000000000E+00 -0.45593999997E+02  0.45594000000E+02  0.51100000000E-03 0. -1.
    9900012    2    1    2    0    0  0.31527563263E+02 -0.16722280602E+02  0.19481877398E+02  0.50528862518E+02  0.30000008109E+02 0.  0.
         12    1    1    2    0    0 -0.31527563263E+02  0.16722280602E+02 -0.19481877398E+02  0.40659137482E+02  0.00000000000E+00 0. -1.
         11    1    3    3    0    0  0.40411713094E+01  0.69916928997E+01  0.84975908284E+01  0.11722793409E+02  0.51100000000E-03 0. -1.
        -11    1    3    3    0    0  0.99980056840E+01 -0.58141504333E+01  0.22934511790E+00  0.11567932502E+02  0.51100000000E-03 0.  1.
         12    1    3    3    0    0  0.17488386270E+02 -0.17899823069E+02  0.10754941452E+02  0.27238136607E+02  0.00000000000E+00 0. -1.
</event>
<event>
 7    1  0.5972636E-013  0.5052886E+02  0.7816164E-02  0.1300439E+00
        -11   -1    0    0    0    0  0.00000000000E+00  0.00000000000E+00  0.45593999997E+02  0.45594000000E+02  0.51100000000E-03 0. -1.
         11   -1    0    0    0    0 -0.00000000000E+00 -0.00000000000E+00 -0.45593999997E+02  0.45594000000E+02  0.51100000000E-03 0.  1.
    9900012    2    1    2    0    0  0.80708215085E+01 -0.34794368308E+02 -0.19426254989E+02  0.50528860699E+02  0.30000002580E+02 0.  0.
         12    1    1    2    0    0 -0.80708215085E+01  0.34794368308E+02  0.19426254989E+02  0.40659139301E+02  0.00000000000E+00 0. -1.
         11    1    3    3    0    0  0.50308829347E+01 -0.83840501304E+00 -0.46568080804E+01  0.69064149765E+01  0.51100000000E-03 0. -1.
        -11    1    3    3    0    0 -0.11067978967E+01 -0.19445112502E+02  0.36440211107E+01  0.19814547482E+02  0.51100000000E-03 0.  1.
        -12    1    3    3    0    0  0.41467364704E+01 -0.14510850794E+02 -0.18413468020E+02  0.23807898240E+02  0.00000000000E+00 0.  1.
</event>
<event>
 7    1  0.5972636E-013  0.5052886E+02  0.7816164E-02  0.1300439E+00
        -11   -1    0    0    0    0  0.00000000000E+00  0.00000000000E+00  0.45593999997E+02  0.45594000000E+02  0.51100000000E-03 0.  1.
         11   -1    0    0    0    0 -0.00000000000E+00 -0.00000000000E+00 -0.45593999997E+02  0.45594000000E+02  0.51100000000E-03 0. -1.
    9900012    2    1    2    0    0  0.20865854485E+02 -0.73336735720E+01  0.34117431719E+02  0.50528858365E+02  0.29999995485E+02 0.  0.
         12    1    1    2    0    0 -0.20865854485E+02  0.73336735720E+01 -0.34117431719E+02  0.40659141635E+02  0.00000000000E+00 0. -1.
         11    1    3    3    0    0  0.26181349474E+02 -0.45172975310E+01  0.17381863050E+02  0.31748987395E+02  0.51100000000E-03 0. -1.
        -11    1    3    3    0    0 -0.12513016870E+01 -0.37398893542E+01  0.11032694037E+02  0.11716350382E+02  0.51100000000E-03 0.  1.
         12    1    3    3    0    0 -0.40641933016E+01  0.92351331322E+00  0.57028746318E+01  0.70635205882E+01  0.00000000000E+00 0. -1.
</event>
<event>
 7    1  0.5972636E-013  0.5052886E+02  0.7816164E-02  0.1300439E+00
        -11   -1    0    0    0    0  0.00000000000E+00  0.00000000000E+00  0.45593999997E+02  0.45594000000E+02  0.51100000000E-03 0.  1.
         11   -1    0    0    0    0 -0.00000000000E+00 -0.00000000000E+00 -0.45593999997E+02  0.45594000000E+02  0.51100000000E-03 0. -1.
    9900012    2    1    2    0    0 -0.26205487767E+01  0.17114354752E+02  0.36788543892E+02  0.50528863558E+02  0.30000011272E+02 0.  0.
         12    1    1    2    0    0  0.26205487767E+01 -0.17114354752E+02 -0.36788543892E+02  0.40659136442E+02  0.00000000000E+00 0. -1.
         11    1    3    3    0    0  0.52994470688E+01  0.10661111899E+02  0.14425129447E+01  0.11992676516E+02  0.51100000000E-03 0. -1.
        -11    1    3    3    0    0 -0.10740742235E+02  0.41522029802E+01  0.23982891802E+02  0.26604199533E+02  0.51100000000E-03 0.  1.
        -12    1    3    3    0    0  0.28207463894E+01  0.23010398731E+01  0.11363139145E+02  0.11931987509E+02  0.00000000000E+00 0.  1.
</event>
<event>
 7    1  0.5972636E-013  0.5052887E+02  0.7816164E-02  0.1300439E+00
        -11   -1    0    0    0    0  0.00000000000E+00  0.00000000000E+00  0.45593999997E+02  0.45594000000E+02  0.51100000000E-03 0.  1.
         11   -1    0    0    0    0 -0.00000000000E+00 -0.00000000000E+00 -0.45593999997E+02  0.45594000000E+02  0.51100000000E-03 0. -1.
    9900012    2    1    2    0    0 -0.15008537777E+02  0.33923862199E+02 -0.16645721437E+02  0.50528872183E+02  0.30000037488E+02 0.  0.
         12    1    1    2    0    0  0.15008537777E+02 -0.33923862199E+02  0.16645721437E+02  0.40659127817E+02  0.00000000000E+00 0. -1.
         11    1    3    3    0    0 -0.14660815954E+02  0.22442121535E+02  0.32987137712E+01  0.27008699640E+02  0.51100000000E-03 0. -1.
        -11    1    3    3    0    0 -0.10114475431E+01  0.19660244378E+01 -0.12678700552E+01  0.25486806313E+01  0.51100000000E-03 0.  1.
         12    1    3    3    0    0  0.66372572065E+00  0.95157162266E+01 -0.18676565153E+02  0.20971491912E+02  0.00000000000E+00 0. -1.
</event>
<event>
 7    1  0.5972636E-013  0.5052886E+02  0.7816164E-02  0.1300439E+00
        -11   -1    0    0    0    0  0.00000000000E+00  0.00000000000E+00  0.45593999997E+02  0.45594000000E+02  0.51100000000E-03 0. -1.
         11   -1    0    0    0    0 -0.00000000000E+00 -0.00000000000E+00 -0.45593999997E+02  0.45594000000E+02  0.51100000000E-03 0.  1.
    9900012    2    1    2    0    0  0.19847527661E+01 -0.38794748435E+02 -0.12008068860E+02  0.50528862436E+02  0.30000007861E+02 0.  0.
         12    1    1    2    0    0 -0.19847527661E+01  0.38794748435E+02  0.12008068860E+02  0.40659137564E+02  0.00000000000E+00 0. -1.
         11    1    3    3    0    0  0.60547359575E+01 -0.28628805577E+02 -0.33967544260E+01  0.29458551851E+02  0.51100000000E-03 0. -1.
        -11    1    3    3    0    0 -0.48231493827E+01  0.27058217420E+01 -0.55144713850E+01  0.78098422638E+01  0.51100000000E-03 0.  1.
        -12    1    3    3    0    0  0.75316619125E+00 -0.12871764600E+02 -0.30968430490E+01  0.13260468321E+02  0.00000000000E+00 0.  1.
</event>
<event>
 7    1  0.5972636E-013  0.5052886E+02  0.7816164E-02  0.1300439E+00
        -11   -1    0    0    0    0  0.00000000000E+00  0.00000000000E+00  0.45593999997E+02  0.45594000000E+02  0.51100000000E-03 0.  1.
         11   -1    0    0    0    0 -0.00000000000E+00 -0.00000000000E+00 -0.45593999997E+02  0.45594000000E+02  0.51100000000E-03 0. -1.
    9900012    2    1    2    0    0  0.29193562472E+02  0.22766398331E+02  0.16810485977E+02  0.50528863001E+02  0.30000009576E+02 0.  0.
         12    1    1    2    0    0 -0.29193562472E+02 -0.22766398331E+02 -0.16810485977E+02  0.40659136999E+02  0.00000000000E+00 0. -1.
         11    1    3    3    0    0  0.36396196102E+01  0.14758970576E+02  0.14342732193E+01  0.15268633970E+02  0.51100000000E-03 0. -1.
        -11    1    3    3    0    0  0.23237235090E+02  0.12623649675E+02  0.11681955493E+02  0.28910097028E+02  0.51100000000E-03 0.  1.
        -12    1    3    3    0    0  0.23167077715E+01 -0.46162219203E+01  0.36942572647E+01  0.63501320029E+01  0.00000000000E+00 0.  1.
</event>
<event>
 7    1  0.5972636E-013  0.5052887E+02  0.7816164E-02  0.1300439E+00
        -11   -1    0    0    0    0  0.00000000000E+00  0.00000000000E+00  0.45593999997E+02  0.45594000000E+02  0.51100000000E-03 0. -1.
         11   -1    0    0    0    0 -0.00000000000E+00 -0.00000000000E+00 -0.45593999997E+02  0.45594000000E+02  0.51100000000E-03 0.  1.
    9900012    2    1    2    0    0  0.21295488034E+02  0.30585484627E+02 -0.16254089699E+02  0.50528866802E+02  0.30000021130E+02 0.  0.
         12    1    1    2    0    0 -0.21295488034E+02 -0.30585484627E+02  0.16254089699E+02  0.40659133198E+02  0.00000000000E+00 0. -1.
         11    1    3    3    0    0 -0.18960613486E+00  0.80785464942E+01 -0.75886749290E+01  0.11085434199E+02  0.51100000000E-03 0. -1.
        -11    1    3    3    0    0  0.25626969299E+02  0.22111128499E+02 -0.56756628604E+01  0.34319917076E+02  0.51100000000E-03 0.  1.
         12    1    3    3    0    0 -0.41418751306E+01  0.39580963421E+00 -0.29897519097E+01  0.51235155260E+01  0.00000000000E+00 0. -1.
</event>
<event>
 7    1  0.5972636E-013  0.5052889E+02  0.7816164E-02  0.1300439E+00
        -11   -1    0    0    0    0  0.00000000000E+00  0.00000000000E+00  0.45593999997E+02  0.45594000000E+02  0.51100000000E-03 0.  1.
         11   -1    0    0    0    0 -0.00000000000E+00 -0.00000000000E+00 -0.45593999997E+02  0.45594000000E+02  0.51100000000E-03 0. -1.
    9900012    2    1    2    0    0  0.38945421217E+01  0.36941312853E+02  0.16532851775E+02  0.50528889810E+02  0.30000091066E+02 0.  0.
         12    1    1    2    0    0 -0.38945421217E+01 -0.36941312853E+02 -0.16532851775E+02  0.40659110190E+02  0.00000000000E+00 0. -1.
         11    1    3    3    0    0  0.39066038082E+01  0.25777524235E+02  0.33797849625E+00  0.26074058731E+02  0.51100000000E-03 0. -1.
        -11    1    3    3    0    0 -0.63885566485E+01  0.69485748815E+01  0.13239067317E+02  0.16259435802E+02  0.51100000000E-03 0.  1.
         12    1    3    3    0    0  0.63764949619E+01  0.42152137363E+01  0.29558059625E+01  0.81953952760E+01  0.00000000000E+00 0. -1.
</event>
<event>
 7    1  0.5972636E-013  0.5052886E+02  0.7816164E-02  0.1300439E+00
        -11   -1    0    0    0    0  0.00000000000E+00  0.00000000000E+00  0.45593999997E+02  0.45594000000E+02  0.51100000000E-03 0.  1.
         11   -1    0    0    0    0 -0.00000000000E+00 -0.00000000000E+00 -0.45593999997E+02  0.45594000000E+02  0.51100000000E-03 0. -1.
    9900012    2    1    2    0    0  0.12722451620E+02  0.44837054319E+01  0.38356244111E+02  0.50528857708E+02  0.29999993491E+02 0.  0.
         12    1    1    2    0    0 -0.12722451620E+02 -0.44837054319E+01 -0.38356244111E+02  0.40659142292E+02  0.00000000000E+00 0. -1.
         11    1    3    3    0    0  0.10493837767E+02  0.83404695293E+01  0.15542623404E+02  0.20524551288E+02  0.51100000000E-03 0. -1.
        -11    1    3    3    0    0  0.62007632183E+01 -0.96244529090E+01  0.91711539691E+01  0.14669342987E+02  0.51100000000E-03 0.  1.
        -12    1    3    3    0    0 -0.39721493654E+01  0.57676888116E+01  0.13642466738E+02  0.15334963433E+02  0.00000000000E+00 0.  1.
</event>
<event>
 7    1  0.5972636E-013  0.5052886E+02  0.7816164E-02  0.1300439E+00
        -11   -1    0    0    0    0  0.00000000000E+00  0.00000000000E+00  0.45593999997E+02  0.45594000000E+02  0.51100000000E-03 0.  1.
         11   -1    0    0    0    0 -0.00000000000E+00 -0.00000000000E+00 -0.45593999997E+02  0.45594000000E+02  0.51100000000E-03 0. -1.
    9900012    2    1    2    0    0  0.11434393968E+02 -0.22095705169E+02  0.32158979102E+02  0.50528862168E+02  0.30000007046E+02 0.  0.
         12    1    1    2    0    0 -0.11434393968E+02  0.22095705169E+02 -0.32158979102E+02  0.40659137832E+02  0.00000000000E+00 0. -1.
         11    1    3    3    0    0 -0.83204922277E+01 -0.10286641867E+02  0.76955516673E+01  0.15305786734E+02  0.51100000000E-03 0.  1.
        -11    1    3    3    0    0  0.14226710929E+02 -0.13329285280E+02  0.20239711720E+02  0.28101869701E+02  0.51100000000E-03 0. -1.
         12    1    3    3    0    0  0.55281752676E+01  0.15202219786E+01  0.42237157150E+01  0.71212057332E+01  0.00000000000E+00 0. -1.
</event>
<event>
 7    1  0.5972636E-013  0.5052887E+02  0.7816164E-02  0.1300439E+00
        -11   -1    0    0    0    0  0.00000000000E+00  0.00000000000E+00  0.45593999997E+02  0.45594000000E+02  0.51100000000E-03 0. -1.
         11   -1    0    0    0    0 -0.00000000000E+00 -0.00000000000E+00 -0.45593999997E+02  0.45594000000E+02  0.51100000000E-03 0.  1.
    9900012    2    1    2    0    0  0.19104704756E+02  0.34487781765E+02 -0.99382029923E+01  0.50528871706E+02  0.30000036038E+02 0.  0.
         12    1    1    2    0    0 -0.19104704756E+02 -0.34487781765E+02  0.99382029923E+01  0.40659128294E+02  0.00000000000E+00 0. -1.
         11    1    3    3    0    0  0.18846187110E+02  0.63476599108E+01  0.17080992770E+00  0.19887200186E+02  0.51100000000E-03 0.  1.
        -11    1    3    3    0    0 -0.25739266433E+01  0.12190046664E+02 -0.64688547004E+01  0.14038105906E+02  0.51100000000E-03 0. -1.
        -12    1    3    3    0    0  0.28324442889E+01  0.15950075191E+02 -0.36401582196E+01  0.16603565614E+02  0.00000000000E+00 0.  1.
</event>
<event>
 7    1  0.5972636E-013  0.5052887E+02  0.7816164E-02  0.1300439E+00
        -11   -1    0    0    0    0  0.00000000000E+00  0.00000000000E+00  0.45593999997E+02  0.45594000000E+02  0.51100000000E-03 0. -1.
         11   -1    0    0    0    0 -0.00000000000E+00 -0.00000000000E+00 -0.45593999997E+02  0.45594000000E+02  0.51100000000E-03 0.  1.
    9900012    2    1    2    0    0  0.24405772684E+02 -0.15928828132E+02 -0.28351294634E+02  0.50528865560E+02  0.30000017357E+02 0.  0.
         12    1    1    2    0    0 -0.24405772684E+02  0.15928828132E+02  0.28351294634E+02  0.40659134440E+02  0.00000000000E+00 0. -1.
         11    1    3    3    0    0 -0.11722145198E+01  0.31551862204E+01  0.36542973975E+01  0.49682166515E+01  0.51100000000E-03 0. -1.
        -11    1    3    3    0    0  0.13333056094E+02 -0.12465112258E+02 -0.15305401402E+02  0.23820258620E+02  0.51100000000E-03 0.  1.
         12    1    3    3    0    0  0.12244931110E+02 -0.66189020947E+01 -0.16700190629E+02  0.21740390288E+02  0.00000000000E+00 0. -1.
</event>
<event>
 7    1  0.5972636E-013  0.5052881E+02  0.7816164E-02  0.1300439E+00
        -11   -1    0    0    0    0  0.00000000000E+00  0.00000000000E+00  0.45593999997E+02  0.45594000000E+02  0.51100000000E-03 0. -1.
         11   -1    0    0    0    0 -0.00000000000E+00 -0.00000000000E+00 -0.45593999997E+02  0.45594000000E+02  0.51100000000E-03 0.  1.
    9900012    2    1    2    0    0 -0.18918444357E+02  0.28711726124E+02  0.21700210632E+02  0.50528807984E+02  0.29999842347E+02 0.  0.
         12    1    1    2    0    0  0.18918444357E+02 -0.28711726124E+02 -0.21700210632E+02  0.40659192016E+02  0.00000000000E+00 0. -1.
         11    1    3    3    0    0  0.39943865072E+01  0.12569981684E+01  0.22586818687E+01  0.47578158865E+01  0.51100000000E-03 0. -1.
        -11    1    3    3    0    0 -0.26617860194E+02  0.26595826808E+02  0.17875483414E+02  0.41657909123E+02  0.51100000000E-03 0.  1.
        -12    1    3    3    0    0  0.37050293302E+01  0.85890114771E+00  0.15660453495E+01  0.41130829746E+01  0.00000000000E+00 0.  1.
</event>
<event>
 7    1  0.5972636E-013  0.5052888E+02  0.7816164E-02  0.1300439E+00
        -11   -1    0    0    0    0  0.00000000000E+00  0.00000000000E+00  0.45593999997E+02  0.45594000000E+02  0.51100000000E-03 0.  1.
         11   -1    0    0    0    0 -0.00000000000E+00 -0.00000000000E+00 -0.45593999997E+02  0.45594000000E+02  0.51100000000E-03 0. -1.
    9900012    2    1    2    0    0  0.10351792489E+02  0.38082234663E+02  0.97850867360E+01  0.50528878919E+02  0.30000057962E+02 0.  0.
         12    1    1    2    0    0 -0.10351792489E+02 -0.38082234663E+02 -0.97850867360E+01  0.40659121081E+02  0.00000000000E+00 0. -1.
         11    1    3    3    0    0 -0.29453685281E+01 -0.37394772882E+00 -0.51253260900E+00  0.30129259212E+01  0.51100000000E-03 0. -1.
        -11    1    3    3    0    0  0.14478846073E+02  0.16954722559E+02  0.13006740657E+02  0.25812301398E+02  0.51100000000E-03 0.  1.
        -12    1    3    3    0    0 -0.11816850558E+01  0.21501459832E+02 -0.27091213119E+01  0.21703651600E+02  0.00000000000E+00 0.  1.
</event>
<event>
 7    1  0.6277599E-013  0.5052886E+02  0.7816164E-02  0.1300439E+00
        -11   -1    0    0    0    0  0.00000000000E+00  0.00000000000E+00  0.45593999997E+02  0.45594000000E+02  0.51100000000E-03 0. -1.
         11   -1    0    0    0    0 -0.00000000000E+00 -0.00000000000E+00 -0.45593999997E+02  0.45594000000E+02  0.51100000000E-03 0.  1.
    9900012    2    1    2    0    0 -0.17111297983E+02 -0.23036777612E+02 -0.28804090966E+02  0.50528864522E+02  0.30000014201E+02 0.  0.
         12    1    1    2    0    0  0.17111297983E+02  0.23036777612E+02  0.28804090966E+02  0.40659135478E+02  0.00000000000E+00 0. -1.
         11    1    3    3    0    0  0.14555138942E+01 -0.25489803971E+01  0.36355767077E+01  0.46726052711E+01  0.51100000000E-03 0. -1.
        -11    1    3    3    0    0 -0.39131819286E+01 -0.12896359863E+02 -0.23492397063E+02  0.27083607783E+02  0.51100000000E-03 0.  1.
        -12    1    3    3    0    0 -0.14653629949E+02 -0.75914373516E+01 -0.89472706109E+01  0.18772651468E+02  0.00000000000E+00 0.  1.
</event>
<event>
 7    1  0.5972636E-013  0.5052886E+02  0.7816164E-02  0.1300439E+00
        -11   -1    0    0    0    0  0.00000000000E+00  0.00000000000E+00  0.45593999997E+02  0.45594000000E+02  0.51100000000E-03 0.  1.
         11   -1    0    0    0    0 -0.00000000000E+00 -0.00000000000E+00 -0.45593999997E+02  0.45594000000E+02  0.51100000000E-03 0. -1.
    9900012    2    1    2    0    0 -0.11654210244E+01 -0.14828519527E+02  0.37840755759E+02  0.50528855961E+02  0.29999988179E+02 0.  0.
         12    1    1    2    0    0  0.11654210244E+01  0.14828519527E+02 -0.37840755759E+02  0.40659144039E+02  0.00000000000E+00 0. -1.
         11    1    3    3    0    0 -0.40707699394E+01 -0.33725062931E+01  0.30158069655E+02  0.30617872757E+02  0.51100000000E-03 0. -1.
        -11    1    3    3    0    0  0.56958952407E+01 -0.24472859053E+00  0.59289159101E+01  0.82252756067E+01  0.51100000000E-03 0.  1.
         12    1    3    3    0    0 -0.27905463256E+01 -0.11211284644E+02  0.17537701948E+01  0.11685707598E+02  0.00000000000E+00 0. -1.
</event>
<event>
 7    1  0.5972636E-013  0.5052886E+02  0.7816164E-02  0.1300439E+00
        -11   -1    0    0    0    0  0.00000000000E+00  0.00000000000E+00  0.45593999997E+02  0.45594000000E+02  0.51100000000E-03 0. -1.
         11   -1    0    0    0    0 -0.00000000000E+00 -0.00000000000E+00 -0.45593999997E+02  0.45594000000E+02  0.51100000000E-03 0.  1.
    9900012    2    1    2    0    0 -0.14637145243E+02  0.37243831724E+02 -0.71984042163E+01  0.50528855327E+02  0.29999986251E+02 0.  0.
         12    1    1    2    0    0  0.14637145243E+02 -0.37243831724E+02  0.71984042163E+01  0.40659144673E+02  0.00000000000E+00 0. -1.
         11    1    3    3    0    0 -0.60740681138E+01  0.13004436965E+02  0.75361224287E+01  0.16211194458E+02  0.51100000000E-03 0. -1.
        -11    1    3    3    0    0  0.42714967587E+01  0.10776930435E+02 -0.95194971621E+01  0.15000291352E+02  0.51100000000E-03 0.  1.
         12    1    3    3    0    0 -0.12834573888E+02  0.13462464324E+02 -0.52150294829E+01  0.19317369517E+02  0.00000000000E+00 0. -1.
</event>
<event>
 7    1  0.5972636E-013  0.5052884E+02  0.7816164E-02  0.1300439E+00
        -11   -1    0    0    0    0  0.00000000000E+00  0.00000000000E+00  0.45593999997E+02  0.45594000000E+02  0.51100000000E-03 0.  1.
         11   -1    0    0    0    0 -0.00000000000E+00 -0.00000000000E+00 -0.45593999997E+02  0.45594000000E+02  0.51100000000E-03 0. -1.
    9900012    2    1    2    0    0 -0.36067423010E+01  0.37103994198E+02  0.16231210166E+02  0.50528841636E+02  0.29999944635E+02 0.  0.
         12    1    1    2    0    0  0.36067423010E+01 -0.37103994198E+02 -0.16231210166E+02  0.40659158364E+02  0.00000000000E+00 0. -1.
         11    1    3    3    0    0  0.86635128989E+00 -0.15652791674E+01 -0.37962114553E+01  0.41966516539E+01  0.51100000000E-03 0. -1.
        -11    1    3    3    0    0 -0.84537533439E+01  0.25193507123E+02  0.77721973765E+01  0.27687285874E+02  0.51100000000E-03 0.  1.
         12    1    3    3    0    0  0.39806597530E+01  0.13475766242E+02  0.12255224245E+02  0.18644904108E+02  0.00000000000E+00 0. -1.
</event>
<event>
 7    1  0.5972636E-013  0.5052887E+02  0.7816164E-02  0.1300439E+00
        -11   -1    0    0    0    0  0.00000000000E+00  0.00000000000E+00  0.45593999997E+02  0.45594000000E+02  0.51100000000E-03 0. -1.
         11   -1    0    0    0    0 -0.00000000000E+00 -0.00000000000E+00 -0.45593999997E+02  0.45594000000E+02  0.51100000000E-03 0.  1.
    9900012    2    1    2    0    0  0.30211583842E+02  0.40190212286E+01 -0.26912316555E+02  0.50528866804E+02  0.30000021137E+02 0.  0.
         12    1    1    2    0    0 -0.30211583842E+02 -0.40190212286E+01  0.26912316555E+02  0.40659133196E+02  0.00000000000E+00 0. -1.
         11    1    3    3    0    0  0.11758768966E+02 -0.99224807460E+01 -0.68941287091E+01  0.16859812652E+02  0.51100000000E-03 0. -1.
        -11    1    3    3    0    0  0.13864553454E+02  0.76961232461E+01 -0.20484926194E+02  0.25905373128E+02  0.51100000000E-03 0.  1.
         12    1    3    3    0    0  0.45882614229E+01  0.62453787286E+01  0.46673834816E+00  0.77636810234E+01  0.00000000000E+00 0. -1.
</event>
<event>
 7    1  0.5972636E-013  0.5052886E+02  0.7816164E-02  0.1300439E+00
        -11   -1    0    0    0    0  0.00000000000E+00  0.00000000000E+00  0.45593999997E+02  0.45594000000E+02  0.51100000000E-03 0.  1.
         11   -1    0    0    0    0 -0.00000000000E+00 -0.00000000000E+00 -0.45593999997E+02  0.45594000000E+02  0.51100000000E-03 0. -1.
    9900012    2    1    2    0    0  0.33545627026E+01 -0.75688178733E+01  0.39807355566E+02  0.50528860166E+02  0.30000000960E+02 0.  0.
         12    1    1    2    0    0 -0.33545627026E+01  0.75688178733E+01 -0.39807355566E+02  0.40659139834E+02  0.00000000000E+00 0. -1.
         11    1    3    3    0    0 -0.16291862416E+01 -0.15785032696E+02  0.16358865303E+02  0.22791094298E+02  0.51100000000E-03 0. -1.
        -11    1    3    3    0    0  0.14617940969E+00  0.86725032181E+01  0.90230583244E+01  0.12515960302E+02  0.51100000000E-03 0.  1.
         12    1    3    3    0    0  0.48375695345E+01 -0.45628839527E+00  0.14425431938E+02  0.15221805567E+02  0.00000000000E+00 0. -1.
</event>
<event>
 7    1  0.5972636E-013  0.5052886E+02  0.7816164E-02  0.1300439E+00
        -11   -1    0    0    0    0  0.00000000000E+00  0.00000000000E+00  0.45593999997E+02  0.45594000000E+02  0.51100000000E-03 0. -1.
         11   -1    0    0    0    0 -0.00000000000E+00 -0.00000000000E+00 -0.45593999997E+02  0.45594000000E+02  0.51100000000E-03 0.  1.
    9900012    2    1    2    0    0 -0.15800019037E+02  0.22877754047E+02 -0.29667036285E+02  0.50528864818E+02  0.30000015102E+02 0.  0.
         12    1    1    2    0    0  0.15800019037E+02 -0.22877754047E+02  0.29667036285E+02  0.40659135182E+02  0.00000000000E+00 0. -1.
         11    1    3    3    0    0  0.39613411821E+01  0.86382645141E+01 -0.45519226012E+01  0.10537164581E+02  0.51100000000E-03 0. -1.
        -11    1    3    3    0    0 -0.20526303558E+02  0.17552294703E+02 -0.19089248512E+02  0.33072822621E+02  0.51100000000E-03 0.  1.
        -12    1    3    3    0    0  0.76494333878E+00 -0.33128051702E+01 -0.60258651717E+01  0.69188776167E+01  0.00000000000E+00 0.  1.
</event>
<event>
 7    1  0.5972636E-013  0.5052886E+02  0.7816164E-02  0.1300439E+00
        -11   -1    0    0    0    0  0.00000000000E+00  0.00000000000E+00  0.45593999997E+02  0.45594000000E+02  0.51100000000E-03 0. -1.
         11   -1    0    0    0    0 -0.00000000000E+00 -0.00000000000E+00 -0.45593999997E+02  0.45594000000E+02  0.51100000000E-03 0.  1.
    9900012    2    1    2    0    0  0.14216737350E+02  0.37930891700E+02 -0.35067594106E+01  0.50528861696E+02  0.30000005613E+02 0.  0.
         12    1    1    2    0    0 -0.14216737350E+02 -0.37930891700E+02  0.35067594106E+01  0.40659138304E+02  0.00000000000E+00 0. -1.
         11    1    3    3    0    0  0.29321670759E+00  0.34492898218E+02  0.12691139609E+01  0.34517483309E+02  0.51100000000E-03 0. -1.
        -11    1    3    3    0    0  0.16071198168E+01  0.13376348559E+01 -0.25878655892E+01  0.33270331652E+01  0.51100000000E-03 0.  1.
         12    1    3    3    0    0  0.12316400825E+02  0.21003586261E+01 -0.21880077823E+01  0.12684345222E+02  0.00000000000E+00 0. -1.
</event>
<event>
 7    1  0.5972636E-013  0.5052884E+02  0.7816164E-02  0.1300439E+00
        -11   -1    0    0    0    0  0.00000000000E+00  0.00000000000E+00  0.45593999997E+02  0.45594000000E+02  0.51100000000E-03 0.  1.
         11   -1    0    0    0    0 -0.00000000000E+00 -0.00000000000E+00 -0.45593999997E+02  0.45594000000E+02  0.51100000000E-03 0. -1.
    9900012    2    1    2    0    0 -0.42704054260E+01  0.26122915911E+02  0.30862989180E+02  0.50528841139E+02  0.29999943125E+02 0.  0.
         12    1    1    2    0    0  0.42704054260E+01 -0.26122915911E+02 -0.30862989180E+02  0.40659158861E+02  0.00000000000E+00 0. -1.
         11    1    3    3    0    0  0.71897201615E+01  0.61820765726E+01  0.59297333652E+00  0.95006191582E+01  0.51100000000E-03 0. -1.
        -11    1    3    3    0    0 -0.14988044693E+02  0.12720563230E+02  0.21643409735E+02  0.29238525918E+02  0.51100000000E-03 0.  1.
        -12    1    3    3    0    0  0.35279191059E+01  0.72202761081E+01  0.86266061084E+01  0.11789696062E+02  0.00000000000E+00 0.  1.
</event>
<event>
 7    1  0.5972636E-013  0.5052886E+02  0.7816164E-02  0.1300439E+00
        -11   -1    0    0    0    0  0.00000000000E+00  0.00000000000E+00  0.45593999997E+02  0.45594000000E+02  0.51100000000E-03 0. -1.
         11   -1    0    0    0    0 -0.00000000000E+00 -0.00000000000E+00 -0.45593999997E+02  0.45594000000E+02  0.51100000000E-03 0.  1.
    9900012    2    1    2    0    0  0.58219945017E+01 -0.39108679589E+02  0.94753003168E+01  0.50528858897E+02  0.29999997103E+02 0.  0.
         12    1    1    2    0    0 -0.58219945017E+01  0.39108679589E+02 -0.94753003168E+01  0.40659141103E+02  0.00000000000E+00 0. -1.
         11    1    3    3    0    0 -0.81125556251E+01 -0.10822055469E+01  0.10908126884E+01  0.82567911563E+01  0.51100000000E-03 0. -1.
        -11    1    3    3    0    0  0.66775553269E+01 -0.29407604573E+02  0.64917091243E+01  0.30847029670E+02  0.51100000000E-03 0.  1.
         12    1    3    3    0    0  0.72569947999E+01 -0.86188694692E+01  0.18927785040E+01  0.11425038071E+02  0.00000000000E+00 0. -1.
</event>
<event>
 7    1  0.5972636E-013  0.5052888E+02  0.7816164E-02  0.1300439E+00
        -11   -1    0    0    0    0  0.00000000000E+00  0.00000000000E+00  0.45593999997E+02  0.45594000000E+02  0.51100000000E-03 0.  1.
         11   -1    0    0    0    0 -0.00000000000E+00 -0.00000000000E+00 -0.45593999997E+02  0.45594000000E+02  0.51100000000E-03 0. -1.
    9900012    2    1    2    0    0 -0.13570681168E+02  0.28661595819E+02  0.25446286594E+02  0.50528880929E+02  0.30000064070E+02 0.  0.
         12    1    1    2    0    0  0.13570681168E+02 -0.28661595819E+02 -0.25446286594E+02  0.40659119071E+02  0.00000000000E+00 0. -1.
         11    1    3    3    0    0 -0.93540191971E+01  0.82579724821E+01  0.83465881032E+01  0.15011905871E+02  0.51100000000E-03 0. -1.
        -11    1    3    3    0    0  0.78376634267E+01  0.94446373172E+01  0.14537414068E+02  0.19025418526E+02  0.51100000000E-03 0.  1.
        -12    1    3    3    0    0 -0.12054325398E+02  0.10958986020E+02  0.25622844226E+01  0.16491556532E+02  0.00000000000E+00 0.  1.
</event>
<event>
 7    1  0.5972636E-013  0.5052886E+02  0.7816164E-02  0.1300439E+00
        -11   -1    0    0    0    0  0.00000000000E+00  0.00000000000E+00  0.45593999997E+02  0.45594000000E+02  0.51100000000E-03 0.  1.
         11   -1    0    0    0    0 -0.00000000000E+00 -0.00000000000E+00 -0.45593999997E+02  0.45594000000E+02  0.51100000000E-03 0. -1.
    9900012    2    1    2    0    0  0.19386035401E+02 -0.35338117411E+02  0.53446061592E+01  0.50528859260E+02  0.29999998208E+02 0.  0.
         12    1    1    2    0    0 -0.19386035401E+02  0.35338117411E+02 -0.53446061592E+01  0.40659140740E+02  0.00000000000E+00 0. -1.
         11    1    3    3    0    0  0.13894247208E+02 -0.29933765614E+02  0.88093502195E+01  0.34156772109E+02  0.51100000000E-03 0.  1.
        -11    1    3    3    0    0  0.18830728970E+01  0.39297690143E+01  0.21905646198E+01  0.48772555455E+01  0.51100000000E-03 0. -1.
         12    1    3    3    0    0  0.36087152955E+01 -0.93341208107E+01 -0.56553086802E+01  0.11494831606E+02  0.00000000000E+00 0. -1.
</event>
<event>
 7    1  0.5972636E-013  0.5052886E+02  0.7816164E-02  0.1300439E+00
        -11   -1    0    0    0    0  0.00000000000E+00  0.00000000000E+00  0.45593999997E+02  0.45594000000E+02  0.51100000000E-03 0.  1.
         11   -1    0    0    0    0 -0.00000000000E+00 -0.00000000000E+00 -0.45593999997E+02  0.45594000000E+02  0.51100000000E-03 0. -1.
    9900012    2    1    2    0    0  0.33569283032E+02  0.11943525818E+02  0.19586251624E+02  0.50528858040E+02  0.29999994499E+02 0.  0.
         12    1    1    2    0    0 -0.33569283032E+02 -0.11943525818E+02 -0.19586251624E+02  0.40659141960E+02  0.00000000000E+00 0. -1.
         11    1    3    3    0    0 -0.31858093480E+01  0.50817070028E+01 -0.30266002686E+01  0.67181423557E+01  0.51100000000E-03 0. -1.
        -11    1    3    3    0    0  0.31467940351E+02  0.58981327228E+01  0.18004531682E+02  0.36731218342E+02  0.51100000000E-03 0.  1.
         12    1    3    3    0    0  0.52871520287E+01  0.96368609193E+00  0.46083202105E+01  0.70794973424E+01  0.00000000000E+00 0. -1.
</event>
<event>
 7    1  0.5972636E-013  0.5052886E+02  0.7816164E-02  0.1300439E+00
        -11   -1    0    0    0    0  0.00000000000E+00  0.00000000000E+00  0.45593999997E+02  0.45594000000E+02  0.51100000000E-03 0.  1.
         11   -1    0    0    0    0 -0.00000000000E+00 -0.00000000000E+00 -0.45593999997E+02  0.45594000000E+02  0.51100000000E-03 0. -1.
    9900012    2    1    2    0    0 -0.40300672629E+01 -0.23138193488E+02  0.33189580813E+02  0.50528859397E+02  0.29999998623E+02 0.  0.
         12    1    1    2    0    0  0.40300672629E+01  0.23138193488E+02 -0.33189580813E+02  0.40659140603E+02  0.00000000000E+00 0. -1.
         11    1    3    3    0    0 -0.14916454877E+02 -0.15018485802E+02  0.20646767415E+02  0.29569317659E+02  0.51100000000E-03 0. -1.
        -11    1    3    3    0    0  0.32244268972E+01  0.10965871002E+01 -0.26806645105E+00  0.34163272628E+01  0.51100000000E-03 0.  1.
         12    1    3    3    0    0  0.76619607169E+01 -0.92162947862E+01  0.12810879849E+02  0.17543214475E+02  0.00000000000E+00 0. -1.
</event>
<event>
 7    1  0.5972636E-013  0.5052886E+02  0.7816164E-02  0.1300439E+00
        -11   -1    0    0    0    0  0.00000000000E+00  0.00000000000E+00  0.45593999997E+02  0.45594000000E+02  0.51100000000E-03 0.  1.
         11   -1    0    0    0    0 -0.00000000000E+00 -0.00000000000E+00 -0.45593999997E+02  0.45594000000E+02  0.51100000000E-03 0. -1.
    9900012    2    1    2    0    0  0.23446709039E+02  0.32787470268E+02 -0.53291111968E+01  0.50528858377E+02  0.29999995524E+02 0.  0.
         12    1    1    2    0    0 -0.23446709039E+02 -0.32787470268E+02  0.53291111968E+01  0.40659141623E+02  0.00000000000E+00 0. -1.
         11    1    3    3    0    0 -0.93916430555E+00  0.19105967492E+02 -0.82972644186E+01  0.20851010060E+02  0.51100000000E-03 0. -1.
        -11    1    3    3    0    0  0.11847609465E+02  0.13541992256E+01  0.65003480002E+00  0.11942455822E+02  0.51100000000E-03 0.  1.
        -12    1    3    3    0    0  0.12538263880E+02  0.12327303550E+02  0.23181184218E+01  0.17735392495E+02  0.00000000000E+00 0.  1.
</event>
<event>
 7    1  0.5972636E-013  0.5052885E+02  0.7816164E-02  0.1300439E+00
        -11   -1    0    0    0    0  0.00000000000E+00  0.00000000000E+00  0.45593999997E+02  0.45594000000E+02  0.51100000000E-03 0.  1.
         11   -1    0    0    0    0 -0.00000000000E+00 -0.00000000000E+00 -0.45593999997E+02  0.45594000000E+02  0.51100000000E-03 0. -1.
    9900012    2    1    2    0    0  0.19808227452E+02 -0.32141176837E+02  0.15091221512E+02  0.50528854781E+02  0.29999984591E+02 0.  0.
         12    1    1    2    0    0 -0.19808227452E+02  0.32141176837E+02 -0.15091221512E+02  0.40659145219E+02  0.00000000000E+00 0. -1.
         11    1    3    3    0    0  0.24125616804E+02 -0.19742901670E+02  0.14311825319E+02  0.34302418235E+02  0.51100000000E-03 0. -1.
        -11    1    3    3    0    0 -0.19752878753E+01 -0.10724681851E+02  0.42618361923E+01  0.11708279592E+02  0.51100000000E-03 0.  1.
         12    1    3    3    0    0 -0.23421014769E+01 -0.16735933154E+01 -0.34824399992E+01  0.45181569540E+01  0.00000000000E+00 0. -1.
</event>
<event>
 7    1  0.5972636E-013  0.5052887E+02  0.7816164E-02  0.1300439E+00
        -11   -1    0    0    0    0  0.00000000000E+00  0.00000000000E+00  0.45593999997E+02  0.45594000000E+02  0.51100000000E-03 0.  1.
         11   -1    0    0    0    0 -0.00000000000E+00 -0.00000000000E+00 -0.45593999997E+02  0.45594000000E+02  0.51100000000E-03 0. -1.
    9900012    2    1    2    0    0  0.24716404040E+02  0.29183240984E+02 -0.13805885532E+02  0.50528872386E+02  0.30000038104E+02 0.  0.
         12    1    1    2    0    0 -0.24716404040E+02 -0.29183240984E+02  0.13805885532E+02  0.40659127614E+02  0.00000000000E+00 0. -1.
         11    1    3    3    0    0  0.30215741220E+01  0.53790869860E+01  0.86731301735E+01  0.10643668270E+02  0.51100000000E-03 0. -1.
        -11    1    3    3    0    0  0.14939387525E+02  0.18009312044E+02 -0.12554753221E+02  0.26554518422E+02  0.51100000000E-03 0.  1.
         12    1    3    3    0    0  0.67554423927E+01  0.57948419544E+01 -0.99242624845E+01  0.13330685694E+02  0.00000000000E+00 0. -1.
</event>
<event>
 7    1  0.5972636E-013  0.5052886E+02  0.7816164E-02  0.1300439E+00
        -11   -1    0    0    0    0  0.00000000000E+00  0.00000000000E+00  0.45593999997E+02  0.45594000000E+02  0.51100000000E-03 0. -1.
         11   -1    0    0    0    0 -0.00000000000E+00 -0.00000000000E+00 -0.45593999997E+02  0.45594000000E+02  0.51100000000E-03 0.  1.
    9900012    2    1    2    0    0 -0.37949260282E+02  0.13202139103E+02  0.62227625559E+01  0.50528860724E+02  0.30000002655E+02 0.  0.
         12    1    1    2    0    0  0.37949260282E+02 -0.13202139103E+02 -0.62227625559E+01  0.40659139276E+02  0.00000000000E+00 0. -1.
         11    1    3    3    0    0 -0.53666134623E+01  0.95210895764E+01  0.15711984708E+01  0.11041754918E+02  0.51100000000E-03 0. -1.
        -11    1    3    3    0    0 -0.15666269298E+02 -0.45655932754E+01  0.10938824379E+02  0.19645216077E+02  0.51100000000E-03 0.  1.
        -12    1    3    3    0    0 -0.16916377522E+02  0.82466428022E+01 -0.62872602940E+01  0.19841889728E+02  0.00000000000E+00 0.  1.
</event>
<event>
 7    1  0.5972636E-013  0.5052887E+02  0.7816164E-02  0.1300439E+00
        -11   -1    0    0    0    0  0.00000000000E+00  0.00000000000E+00  0.45593999997E+02  0.45594000000E+02  0.51100000000E-03 0.  1.
         11   -1    0    0    0    0 -0.00000000000E+00 -0.00000000000E+00 -0.45593999997E+02  0.45594000000E+02  0.51100000000E-03 0. -1.
    9900012    2    1    2    0    0 -0.21194661939E+02 -0.32110780707E+02  0.13147195926E+02  0.50528871959E+02  0.30000036807E+02 0.  0.
         12    1    1    2    0    0  0.21194661939E+02  0.32110780707E+02 -0.13147195926E+02  0.40659128041E+02  0.00000000000E+00 0. -1.
         11    1    3    3    0    0 -0.59495499096E+01 -0.12620812530E+02 -0.88530037529E+01  0.16524458501E+02  0.51100000000E-03 0. -1.
        -11    1    3    3    0    0 -0.13983186074E+02 -0.20085188595E+02  0.20241354688E+02  0.31759356630E+02  0.51100000000E-03 0.  1.
        -12    1    3    3    0    0 -0.12619259550E+01  0.59522041720E+00  0.17588449910E+01  0.22450568285E+01  0.00000000000E+00 0.  1.
</event>
<event>
 7    1  0.5972636E-013  0.5052885E+02  0.7816164E-02  0.1300439E+00
        -11   -1    0    0    0    0  0.00000000000E+00  0.00000000000E+00  0.45593999997E+02  0.45594000000E+02  0.51100000000E-03 0. -1.
         11   -1    0    0    0    0 -0.00000000000E+00 -0.00000000000E+00 -0.45593999997E+02  0.45594000000E+02  0.51100000000E-03 0.  1.
    9900012    2    1    2    0    0  0.29341827783E+02  0.18630547026E+02 -0.21098020300E+02  0.50528848500E+02  0.29999965500E+02 0.  0.
         12    1    1    2    0    0 -0.29341827783E+02 -0.18630547026E+02  0.21098020300E+02  0.40659151500E+02  0.00000000000E+00 0. -1.
         11    1    3    3    0    0 -0.14587358082E+01  0.97898553956E+00  0.55300461614E+01  0.58023903396E+01  0.51100000000E-03 0. -1.
        -11    1    3    3    0    0  0.18084041732E+02  0.10561412479E+02 -0.19061499004E+02  0.28318134534E+02  0.51100000000E-03 0.  1.
         12    1    3    3    0    0  0.12716521859E+02  0.70901490073E+01 -0.75665674573E+01  0.16408323626E+02  0.00000000000E+00 0. -1.
</event>
<event>
 7    1  0.5972636E-013  0.5052884E+02  0.7816164E-02  0.1300439E+00
        -11   -1    0    0    0    0  0.00000000000E+00  0.00000000000E+00  0.45593999997E+02  0.45594000000E+02  0.51100000000E-03 0. -1.
         11   -1    0    0    0    0 -0.00000000000E+00 -0.00000000000E+00 -0.45593999997E+02  0.45594000000E+02  0.51100000000E-03 0.  1.
    9900012    2    1    2    0    0 -0.30043335646E+02  0.26534432060E+02 -0.68182755840E+01  0.50528843794E+02  0.29999951195E+02 0.  0.
         12    1    1    2    0    0  0.30043335646E+02 -0.26534432060E+02  0.68182755840E+01  0.40659156206E+02  0.00000000000E+00 0. -1.
         11    1    3    3    0    0 -0.10324236291E+02 -0.64647148437E+00 -0.46448733283E+01  0.11339428066E+02  0.51100000000E-03 0. -1.
        -11    1    3    3    0    0 -0.11196314764E+02  0.28092897802E+02  0.38507554722E+00  0.30244283007E+02  0.51100000000E-03 0.  1.
        -12    1    3    3    0    0 -0.85227845912E+01 -0.91199425749E+00 -0.25584778029E+01  0.89451327202E+01  0.00000000000E+00 0.  1.
</event>
<event>
 7    1  0.5972636E-013  0.5052885E+02  0.7816164E-02  0.1300439E+00
        -11   -1    0    0    0    0  0.00000000000E+00  0.00000000000E+00  0.45593999997E+02  0.45594000000E+02  0.51100000000E-03 0.  1.
         11   -1    0    0    0    0 -0.00000000000E+00 -0.00000000000E+00 -0.45593999997E+02  0.45594000000E+02  0.51100000000E-03 0. -1.
    9900012    2    1    2    0    0 -0.15404502098E+02 -0.36886395469E+02  0.74338404330E+01  0.50528845567E+02  0.29999956586E+02 0.  0.
         12    1    1    2    0    0  0.15404502098E+02  0.36886395469E+02 -0.74338404330E+01  0.40659154433E+02  0.00000000000E+00 0. -1.
         11    1    3    3    0    0 -0.44504637695E+01  0.39991260136E+01  0.43647825865E+01  0.74061436608E+01  0.51100000000E-03 0. -1.
        -11    1    3    3    0    0 -0.41903154207E+01 -0.25152451989E+02  0.46680458583E+01  0.25922870921E+02  0.51100000000E-03 0.  1.
        -12    1    3    3    0    0 -0.67637229073E+01 -0.15733069494E+02 -0.15989880119E+01  0.17199830986E+02  0.00000000000E+00 0.  1.
</event>
<event>
 7    1  0.5972636E-013  0.5052888E+02  0.7816164E-02  0.1300439E+00
        -11   -1    0    0    0    0  0.00000000000E+00  0.00000000000E+00  0.45593999997E+02  0.45594000000E+02  0.51100000000E-03 0.  1.
         11   -1    0    0    0    0 -0.00000000000E+00 -0.00000000000E+00 -0.45593999997E+02  0.45594000000E+02  0.51100000000E-03 0. -1.
    9900012    2    1    2    0    0 -0.93718988529E+01  0.18309776739E+02  0.35072552314E+02  0.50528876323E+02  0.30000050072E+02 0.  0.
         12    1    1    2    0    0  0.93718988529E+01 -0.18309776739E+02 -0.35072552314E+02  0.40659123677E+02  0.00000000000E+00 0. -1.
         11    1    3    3    0    0 -0.14484813808E+02  0.11264479618E+02  0.18326237418E+02  0.25933555682E+02  0.51100000000E-03 0. -1.
        -11    1    3    3    0    0  0.10136228033E+01  0.13581275222E+00  0.16526707057E+02  0.16558318837E+02  0.51100000000E-03 0.  1.
         12    1    3    3    0    0  0.40992921523E+01  0.69094843692E+01  0.21960783845E+00  0.80370018042E+01  0.00000000000E+00 0. -1.
</event>
<event>
 7    1  0.5972636E-013  0.5052886E+02  0.7816164E-02  0.1300439E+00
        -11   -1    0    0    0    0  0.00000000000E+00  0.00000000000E+00  0.45593999997E+02  0.45594000000E+02  0.51100000000E-03 0.  1.
         11   -1    0    0    0    0 -0.00000000000E+00 -0.00000000000E+00 -0.45593999997E+02  0.45594000000E+02  0.51100000000E-03 0. -1.
    9900012    2    1    2    0    0 -0.77381722353E+01  0.30823296937E+02  0.25361593719E+02  0.50528863516E+02  0.30000011144E+02 0.  0.
         12    1    1    2    0    0  0.77381722353E+01 -0.30823296937E+02 -0.25361593719E+02  0.40659136484E+02  0.00000000000E+00 0. -1.
         11    1    3    3    0    0 -0.74965604500E+01  0.98450449253E+01  0.22395744554E+02  0.25586963528E+02  0.51100000000E-03 0. -1.
        -11    1    3    3    0    0  0.62416911816E+01  0.11192022170E+02  0.31702081684E+01  0.13201147267E+02  0.51100000000E-03 0.  1.
         12    1    3    3    0    0 -0.64833029670E+01  0.97862298416E+01 -0.20435900370E+00  0.11740752722E+02  0.00000000000E+00 0. -1.
</event>
<event>
 7    1  0.5972636E-013  0.5052886E+02  0.7816164E-02  0.1300439E+00
        -11   -1    0    0    0    0  0.00000000000E+00  0.00000000000E+00  0.45593999997E+02  0.45594000000E+02  0.51100000000E-03 0. -1.
         11   -1    0    0    0    0 -0.00000000000E+00 -0.00000000000E+00 -0.45593999997E+02  0.45594000000E+02  0.51100000000E-03 0.  1.
    9900012    2    1    2    0    0 -0.12334832396E+02  0.13751576387E+02 -0.36220320844E+02  0.50528860985E+02  0.30000003450E+02 0.  0.
         12    1    1    2    0    0  0.12334832396E+02 -0.13751576387E+02  0.36220320844E+02  0.40659139015E+02  0.00000000000E+00 0. -1.
         11    1    3    3    0    0 -0.13593492243E+02  0.34938809750E+01 -0.21885963000E+01  0.14204935398E+02  0.51100000000E-03 0. -1.
        -11    1    3    3    0    0  0.38080583638E+01  0.47880319300E+01 -0.11850316920E+02  0.13336287700E+02  0.51100000000E-03 0.  1.
         12    1    3    3    0    0 -0.25493985165E+01  0.54696634817E+01 -0.22181407625E+02  0.22987637887E+02  0.00000000000E+00 0. -1.
</event>
<event>
 7    1  0.5972636E-013  0.5052881E+02  0.7816164E-02  0.1300439E+00
        -11   -1    0    0    0    0  0.00000000000E+00  0.00000000000E+00  0.45593999997E+02  0.45594000000E+02  0.51100000000E-03 0. -1.
         11   -1    0    0    0    0 -0.00000000000E+00 -0.00000000000E+00 -0.45593999997E+02  0.45594000000E+02  0.51100000000E-03 0.  1.
    9900012    2    1    2    0    0 -0.74625274770E+01 -0.39720365202E+02 -0.44466770818E+01  0.50528810814E+02  0.29999850951E+02 0.  0.
         12    1    1    2    0    0  0.74625274770E+01  0.39720365202E+02  0.44466770818E+01  0.40659189186E+02  0.00000000000E+00 0. -1.
         11    1    3    3    0    0 -0.56382476509E+01 -0.52081989406E+01 -0.21434142814E+01  0.79692783751E+01  0.51100000000E-03 0. -1.
        -11    1    3    3    0    0  0.10568150701E+02 -0.23736539165E+02 -0.27749745979E+01  0.26130625424E+02  0.51100000000E-03 0.  1.
        -12    1    3    3    0    0 -0.12392430527E+02 -0.10775627097E+02  0.47171179753E+00  0.16428907016E+02  0.00000000000E+00 0.  1.
</event>
<event>
 7    1  0.5972636E-013  0.5052885E+02  0.7816164E-02  0.1300439E+00
        -11   -1    0    0    0    0  0.00000000000E+00  0.00000000000E+00  0.45593999997E+02  0.45594000000E+02  0.51100000000E-03 0.  1.
         11   -1    0    0    0    0 -0.00000000000E+00 -0.00000000000E+00 -0.45593999997E+02  0.45594000000E+02  0.51100000000E-03 0. -1.
    9900012    2    1    2    0    0 -0.39101273513E+01  0.14303809015E+02  0.37858662653E+02  0.50528851139E+02  0.29999973522E+02 0.  0.
         12    1    1    2    0    0  0.39101273513E+01 -0.14303809015E+02 -0.37858662653E+02  0.40659148861E+02  0.00000000000E+00 0. -1.
         11    1    3    3    0    0 -0.62542445057E+00 -0.65239711918E+01  0.60011613537E+01  0.88863543543E+01  0.51100000000E-03 0. -1.
        -11    1    3    3    0    0 -0.27500603398E+01  0.20420083700E+02  0.33800998943E+02  0.39585984640E+02  0.51100000000E-03 0.  1.
        -12    1    3    3    0    0 -0.53464256098E+00  0.40769650697E+00 -0.19434976433E+01  0.20565121442E+01  0.00000000000E+00 0.  1.
</event>
<event>
 7    1  0.5972636E-013  0.5052885E+02  0.7816164E-02  0.1300439E+00
        -11   -1    0    0    0    0  0.00000000000E+00  0.00000000000E+00  0.45593999997E+02  0.45594000000E+02  0.51100000000E-03 0.  1.
         11   -1    0    0    0    0 -0.00000000000E+00 -0.00000000000E+00 -0.45593999997E+02  0.45594000000E+02  0.51100000000E-03 0. -1.
    9900012    2    1    2    0    0  0.29574725924E+02 -0.23228913964E+02  0.15457019884E+02  0.50528851938E+02  0.29999975951E+02 0.  0.
         12    1    1    2    0    0 -0.29574725924E+02  0.23228913964E+02 -0.15457019884E+02  0.40659148062E+02  0.00000000000E+00 0. -1.
         11    1    3    3    0    0  0.28116080995E+02 -0.10697726736E+02  0.89883853713E+01  0.31396599173E+02  0.51100000000E-03 0. -1.
        -11    1    3    3    0    0  0.30207511000E+01 -0.61327930647E+01  0.96433244870E+01  0.11820735823E+02  0.51100000000E-03 0.  1.
         12    1    3    3    0    0 -0.15621061707E+01 -0.63983941631E+01 -0.31746899739E+01  0.73115169415E+01  0.00000000000E+00 0. -1.
</event>
<event>
 7    1  0.5972636E-013  0.5052886E+02  0.7816164E-02  0.1300439E+00
        -11   -1    0    0    0    0  0.00000000000E+00  0.00000000000E+00  0.45593999997E+02  0.45594000000E+02  0.51100000000E-03 0.  1.
         11   -1    0    0    0    0 -0.00000000000E+00 -0.00000000000E+00 -0.45593999997E+02  0.45594000000E+02  0.51100000000E-03 0. -1.
    9900012    2    1    2    0    0 -0.15298266910E+01  0.28937461260E+02  0.28521024637E+02  0.50528857360E+02  0.29999992433E+02 0.  0.
         12    1    1    2    0    0  0.15298266910E+01 -0.28937461260E+02 -0.28521024637E+02  0.40659142640E+02  0.00000000000E+00 0. -1.
         11    1    3    3    0    0 -0.47883560302E+00  0.16561682994E+02 -0.60605224076E+00  0.16579684156E+02  0.51100000000E-03 0. -1.
        -11    1    3    3    0    0  0.27205557065E+01  0.40879081615E+01  0.21552668995E+02  0.22104975855E+02  0.51100000000E-03 0.  1.
        -12    1    3    3    0    0 -0.37715467946E+01  0.82878701043E+01  0.75744078825E+01  0.11844197350E+02  0.00000000000E+00 0.  1.
</event>
<event>
 7    1  0.5972636E-013  0.5052886E+02  0.7816164E-02  0.1300439E+00
        -11   -1    0    0    0    0  0.00000000000E+00  0.00000000000E+00  0.45593999997E+02  0.45594000000E+02  0.51100000000E-03 0. -1.
         11   -1    0    0    0    0 -0.00000000000E+00 -0.00000000000E+00 -0.45593999997E+02  0.45594000000E+02  0.51100000000E-03 0.  1.
    9900012    2    1    2    0    0  0.32152710035E+02  0.15640934434E+02 -0.19357947039E+02  0.50528859501E+02  0.29999998939E+02 0.  0.
         12    1    1    2    0    0 -0.32152710035E+02 -0.15640934434E+02  0.19357947039E+02  0.40659140499E+02  0.00000000000E+00 0. -1.
         11    1    3    3    0    0  0.15698717699E+02  0.60238355089E+01  0.42802790629E+01  0.17350997688E+02  0.51100000000E-03 0. -1.
        -11    1    3    3    0    0  0.65427913315E+01  0.95779845427E+01 -0.18939402351E+02  0.22209161803E+02  0.51100000000E-03 0.  1.
         12    1    3    3    0    0  0.99112010037E+01  0.39114382480E-01 -0.46988237509E+01  0.10968700010E+02  0.00000000000E+00 0. -1.
</event>
<event>
 7    1  0.5972636E-013  0.5052876E+02  0.7816164E-02  0.1300439E+00
        -11   -1    0    0    0    0  0.00000000000E+00  0.00000000000E+00  0.45593999997E+02  0.45594000000E+02  0.51100000000E-03 0. -1.
         11   -1    0    0    0    0 -0.00000000000E+00 -0.00000000000E+00 -0.45593999997E+02  0.45594000000E+02  0.51100000000E-03 0.  1.
    9900012    2    1    2    0    0 -0.20252925813E+02  0.14900387387E+02 -0.31952643672E+02  0.50528757682E+02  0.29999689449E+02 0.  0.
         12    1    1    2    0    0  0.20252925813E+02 -0.14900387387E+02  0.31952643672E+02  0.40659242318E+02  0.00000000000E+00 0. -1.
         11    1    3    3    0    0 -0.76890109872E+01  0.11394983889E+02 -0.11647756500E+02  0.18017679638E+02  0.51100000000E-03 0. -1.
        -11    1    3    3    0    0 -0.14509979135E+02 -0.59830593525E+01 -0.12986288456E+02  0.20371062364E+02  0.51100000000E-03 0.  1.
        -12    1    3    3    0    0  0.19460643094E+01  0.94884628499E+01 -0.73185987154E+01  0.12140015680E+02  0.00000000000E+00 0.  1.
</event>
<event>
 7    1  0.5972636E-013  0.5052887E+02  0.7816164E-02  0.1300439E+00
        -11   -1    0    0    0    0  0.00000000000E+00  0.00000000000E+00  0.45593999997E+02  0.45594000000E+02  0.51100000000E-03 0.  1.
         11   -1    0    0    0    0 -0.00000000000E+00 -0.00000000000E+00 -0.45593999997E+02  0.45594000000E+02  0.51100000000E-03 0. -1.
    9900012    2    1    2    0    0  0.11476078203E+02  0.38222027148E+02  0.77808151026E+01  0.50528870473E+02  0.30000032291E+02 0.  0.
         12    1    1    2    0    0 -0.11476078203E+02 -0.38222027148E+02 -0.77808151026E+01  0.40659129527E+02  0.00000000000E+00 0. -1.
         11    1    3    3    0    0  0.16211432991E+02  0.37421190694E+02  0.26580878954E+01  0.40868343545E+02  0.51100000000E-03 0.  1.
        -11    1    3    3    0    0 -0.42773241753E+01  0.34139468545E+01  0.28669073462E+01  0.61781626087E+01  0.51100000000E-03 0. -1.
         12    1    3    3    0    0 -0.45803061281E+00 -0.26131104011E+01  0.22558198610E+01  0.34823643198E+01  0.00000000000E+00 0. -1.
</event>
<event>
 7    1  0.5972636E-013  0.5052886E+02  0.7816164E-02  0.1300439E+00
        -11   -1    0    0    0    0  0.00000000000E+00  0.00000000000E+00  0.45593999997E+02  0.45594000000E+02  0.51100000000E-03 0.  1.
         11   -1    0    0    0    0 -0.00000000000E+00 -0.00000000000E+00 -0.45593999997E+02  0.45594000000E+02  0.51100000000E-03 0. -1.
    9900012    2    1    2    0    0 -0.18161592297E+02  0.36200349571E+02 -0.35856593724E+01  0.50528859613E+02  0.29999999280E+02 0.  0.
         12    1    1    2    0    0  0.18161592297E+02 -0.36200349571E+02  0.35856593724E+01  0.40659140387E+02  0.00000000000E+00 0. -1.
         11    1    3    3    0    0 -0.14510907246E+02  0.28211136542E+01 -0.27206456120E+01  0.15030869042E+02  0.51100000000E-03 0. -1.
        -11    1    3    3    0    0 -0.55998733768E+01  0.26506704002E+02  0.31978452423E+01  0.27279848852E+02  0.51100000000E-03 0.  1.
         12    1    3    3    0    0  0.19491883254E+01  0.68725319148E+01 -0.40628590027E+01  0.82181417196E+01  0.00000000000E+00 0. -1.
</event>
<event>
 7    1  0.5972636E-013  0.5052887E+02  0.7816164E-02  0.1300439E+00
        -11   -1    0    0    0    0  0.00000000000E+00  0.00000000000E+00  0.45593999997E+02  0.45594000000E+02  0.51100000000E-03 0.  1.
         11   -1    0    0    0    0 -0.00000000000E+00 -0.00000000000E+00 -0.45593999997E+02  0.45594000000E+02  0.51100000000E-03 0. -1.
    9900012    2    1    2    0    0 -0.66068733851E+01  0.11905216107E+02  0.38311613311E+02  0.50528872354E+02  0.30000038006E+02 0.  0.
         12    1    1    2    0    0  0.66068733851E+01 -0.11905216107E+02 -0.38311613311E+02  0.40659127646E+02  0.00000000000E+00 0. -1.
         11    1    3    3    0    0 -0.10909670961E+02  0.85605369492E+01  0.63984856607E+01  0.15272338797E+02  0.51100000000E-03 0. -1.
        -11    1    3    3    0    0  0.35349433723E+00 -0.37832021120E+01  0.22445971865E+02  0.22765307591E+02  0.51100000000E-03 0.  1.
         12    1    3    3    0    0  0.39493032385E+01  0.71278812698E+01  0.94671557850E+01  0.12491225966E+02  0.00000000000E+00 0. -1.
</event>
<event>
 7    1  0.5972636E-013  0.5052886E+02  0.7816164E-02  0.1300439E+00
        -11   -1    0    0    0    0  0.00000000000E+00  0.00000000000E+00  0.45593999997E+02  0.45594000000E+02  0.51100000000E-03 0.  1.
         11   -1    0    0    0    0 -0.00000000000E+00 -0.00000000000E+00 -0.45593999997E+02  0.45594000000E+02  0.51100000000E-03 0. -1.
    9900012    2    1    2    0    0 -0.36590550766E+01 -0.34226696026E+02  0.21640470319E+02  0.50528863751E+02  0.30000011856E+02 0.  0.
         12    1    1    2    0    0  0.36590550766E+01  0.34226696026E+02 -0.21640470319E+02  0.40659136249E+02  0.00000000000E+00 0. -1.
         11    1    3    3    0    0 -0.10065286163E+02 -0.49282805510E+01  0.49220196970E+01  0.12240270131E+02  0.51100000000E-03 0. -1.
        -11    1    3    3    0    0  0.47029665820E+01 -0.25198221633E+02  0.54906273857E+01  0.26214790816E+02  0.51100000000E-03 0.  1.
        -12    1    3    3    0    0  0.17032645043E+01 -0.41001938415E+01  0.11227823237E+02  0.12073802804E+02  0.00000000000E+00 0.  1.
</event>
<event>
 7    1  0.5972636E-013  0.5052886E+02  0.7816164E-02  0.1300439E+00
        -11   -1    0    0    0    0  0.00000000000E+00  0.00000000000E+00  0.45593999997E+02  0.45594000000E+02  0.51100000000E-03 0.  1.
         11   -1    0    0    0    0 -0.00000000000E+00 -0.00000000000E+00 -0.45593999997E+02  0.45594000000E+02  0.51100000000E-03 0. -1.
    9900012    2    1    2    0    0 -0.16845486352E+02  0.21883179397E+02  0.29841606031E+02  0.50528863248E+02  0.30000010328E+02 0.  0.
         12    1    1    2    0    0  0.16845486352E+02 -0.21883179397E+02 -0.29841606031E+02  0.40659136752E+02  0.00000000000E+00 0. -1.
         11    1    3    3    0    0  0.29262542244E+01  0.21027168626E+01  0.10032290970E+02  0.10659795700E+02  0.51100000000E-03 0.  1.
        -11    1    3    3    0    0 -0.22235624063E+02  0.11518754051E+02  0.10423874922E+02  0.27124930249E+02  0.51100000000E-03 0. -1.
        -12    1    3    3    0    0  0.24638834867E+01  0.82617084831E+01  0.93854401386E+01  0.12744137299E+02  0.00000000000E+00 0.  1.
</event>
<event>
 7    1  0.5972636E-013  0.5052886E+02  0.7816164E-02  0.1300439E+00
        -11   -1    0    0    0    0  0.00000000000E+00  0.00000000000E+00  0.45593999997E+02  0.45594000000E+02  0.51100000000E-03 0.  1.
         11   -1    0    0    0    0 -0.00000000000E+00 -0.00000000000E+00 -0.45593999997E+02  0.45594000000E+02  0.51100000000E-03 0. -1.
    9900012    2    1    2    0    0  0.37953276519E+02 -0.99772930579E+01  0.10638030484E+02  0.50528864890E+02  0.30000015320E+02 0.  0.
         12    1    1    2    0    0 -0.37953276519E+02  0.99772930579E+01 -0.10638030484E+02  0.40659135110E+02  0.00000000000E+00 0. -1.
         11    1    3    3    0    0 -0.36714857387E+00 -0.11436684105E+01  0.76071532860E+01  0.77013996706E+01  0.51100000000E-03 0.  1.
        -11    1    3    3    0    0  0.32306329401E+02 -0.13258783325E+02  0.43994560349E+00  0.34924029078E+02  0.51100000000E-03 0. -1.
        -12    1    3    3    0    0  0.60140956921E+01  0.44251586777E+01  0.25909315946E+01  0.79034361416E+01  0.00000000000E+00 0.  1.
</event>
<event>
 7    1  0.5972636E-013  0.5052886E+02  0.7816164E-02  0.1300439E+00
        -11   -1    0    0    0    0  0.00000000000E+00  0.00000000000E+00  0.45593999997E+02  0.45594000000E+02  0.51100000000E-03 0. -1.
         11   -1    0    0    0    0 -0.00000000000E+00 -0.00000000000E+00 -0.45593999997E+02  0.45594000000E+02  0.51100000000E-03 0.  1.
    9900012    2    1    2    0    0  0.17949378909E+02  0.87870206850E+01 -0.35408661923E+02  0.50528864804E+02  0.30000015058E+02 0.  0.
         12    1    1    2    0    0 -0.17949378909E+02 -0.87870206850E+01  0.35408661923E+02  0.40659135196E+02  0.00000000000E+00 0. -1.
         11    1    3    3    0    0  0.11248130104E+02  0.14356122033E+02 -0.86668904694E+01  0.20192415936E+02  0.51100000000E-03 0. -1.
        -11    1    3    3    0    0  0.95059567019E+01 -0.24955997843E+01 -0.21532752901E+02  0.23669615097E+02  0.51100000000E-03 0.  1.
        -12    1    3    3    0    0 -0.28047078965E+01 -0.30735015636E+01 -0.52090185521E+01  0.66668337705E+01  0.00000000000E+00 0.  1.
</event>
<event>
 7    1  0.5972636E-013  0.5052886E+02  0.7816164E-02  0.1300439E+00
        -11   -1    0    0    0    0  0.00000000000E+00  0.00000000000E+00  0.45593999997E+02  0.45594000000E+02  0.51100000000E-03 0. -1.
         11   -1    0    0    0    0 -0.00000000000E+00 -0.00000000000E+00 -0.45593999997E+02  0.45594000000E+02  0.51100000000E-03 0.  1.
    9900012    2    1    2    0    0  0.37975571605E+02 -0.13768375098E+02 -0.46317971008E+01  0.50528859134E+02  0.29999997824E+02 0.  0.
         12    1    1    2    0    0 -0.37975571605E+02  0.13768375098E+02  0.46317971008E+01  0.40659140866E+02  0.00000000000E+00 0. -1.
         11    1    3    3    0    0  0.14835878579E+02 -0.72193062472E+01  0.49567745783E+01  0.17227631595E+02  0.51100000000E-03 0. -1.
        -11    1    3    3    0    0  0.12353813661E+02 -0.13083975339E+02 -0.10183044681E+02  0.20676109931E+02  0.51100000000E-03 0.  1.
        -12    1    3    3    0    0  0.10785879365E+02  0.65349064875E+01  0.59447300204E+00  0.12625117608E+02  0.00000000000E+00 0.  1.
</event>
<event>
 7    1  0.5972636E-013  0.5052888E+02  0.7816164E-02  0.1300439E+00
        -11   -1    0    0    0    0  0.00000000000E+00  0.00000000000E+00  0.45593999997E+02  0.45594000000E+02  0.51100000000E-03 0.  1.
         11   -1    0    0    0    0 -0.00000000000E+00 -0.00000000000E+00 -0.45593999997E+02  0.45594000000E+02  0.51100000000E-03 0. -1.
    9900012    2    1    2    0    0 -0.29956256665E+02  0.26075772391E+02  0.87086819125E+01  0.50528876057E+02  0.30000049262E+02 0.  0.
         12    1    1    2    0    0  0.29956256665E+02 -0.26075772391E+02 -0.87086819125E+01  0.40659123943E+02  0.00000000000E+00 0. -1.
         11    1    3    3    0    0 -0.28809602126E+02  0.20478869992E+02  0.11224762323E+02  0.37086015967E+02  0.51100000000E-03 0.  1.
        -11    1    3    3    0    0 -0.35031905084E+01  0.17945519422E+01 -0.64034294585E+01  0.75164266445E+01  0.51100000000E-03 0. -1.
        -12    1    3    3    0    0  0.23565359690E+01  0.38023504561E+01  0.38873490476E+01  0.59264334453E+01  0.00000000000E+00 0.  1.
</event>
<event>
 7    1  0.5972636E-013  0.5052886E+02  0.7816164E-02  0.1300439E+00
        -11   -1    0    0    0    0  0.00000000000E+00  0.00000000000E+00  0.45593999997E+02  0.45594000000E+02  0.51100000000E-03 0.  1.
         11   -1    0    0    0    0 -0.00000000000E+00 -0.00000000000E+00 -0.45593999997E+02  0.45594000000E+02  0.51100000000E-03 0. -1.
    9900012    2    1    2    0    0 -0.27875614753E+02  0.29109422238E+02 -0.53626011249E+01  0.50528857711E+02  0.29999993498E+02 0.  0.
         12    1    1    2    0    0  0.27875614753E+02 -0.29109422238E+02  0.53626011249E+01  0.40659142289E+02  0.00000000000E+00 0. -1.
         11    1    3    3    0    0 -0.37892301085E+01  0.44260877342E+01 -0.71536885649E+01  0.92262548085E+01  0.51100000000E-03 0. -1.
        -11    1    3    3    0    0 -0.47831679796E+01  0.16818784749E+02  0.84507259139E+01  0.19420735956E+02  0.51100000000E-03 0.  1.
        -12    1    3    3    0    0 -0.19303216664E+02  0.78645497554E+01 -0.66596384739E+01  0.21881866946E+02  0.00000000000E+00 0.  1.
</event>
<event>
 7    1  0.5972636E-013  0.5052886E+02  0.7816164E-02  0.1300439E+00
        -11   -1    0    0    0    0  0.00000000000E+00  0.00000000000E+00  0.45593999997E+02  0.45594000000E+02  0.51100000000E-03 0. -1.
         11   -1    0    0    0    0 -0.00000000000E+00 -0.00000000000E+00 -0.45593999997E+02  0.45594000000E+02  0.51100000000E-03 0.  1.
    9900012    2    1    2    0    0 -0.10188957120E+02  0.28127897483E+01 -0.39261160519E+02  0.50528863774E+02  0.30000011927E+02 0.  0.
         12    1    1    2    0    0  0.10188957120E+02 -0.28127897483E+01  0.39261160519E+02  0.40659136226E+02  0.00000000000E+00 0. -1.
         11    1    3    3    0    0 -0.14539508459E+01 -0.55197932454E+01 -0.22902590538E+02  0.23603193516E+02  0.51100000000E-03 0. -1.
        -11    1    3    3    0    0 -0.96167135891E+01  0.13194226890E+02 -0.11310283427E+02  0.19861805430E+02  0.51100000000E-03 0.  1.
        -12    1    3    3    0    0  0.88170731532E+00 -0.48616438968E+01 -0.50482865545E+01  0.70638648278E+01  0.00000000000E+00 0.  1.
</event>
<event>
 7    1  0.5972636E-013  0.5052887E+02  0.7816164E-02  0.1300439E+00
        -11   -1    0    0    0    0  0.00000000000E+00  0.00000000000E+00  0.45593999997E+02  0.45594000000E+02  0.51100000000E-03 0.  1.
         11   -1    0    0    0    0 -0.00000000000E+00 -0.00000000000E+00 -0.45593999997E+02  0.45594000000E+02  0.51100000000E-03 0. -1.
    9900012    2    1    2    0    0  0.27213490207E+02  0.22587711211E+02  0.20059569893E+02  0.50528867062E+02  0.30000021921E+02 0.  0.
         12    1    1    2    0    0 -0.27213490207E+02 -0.22587711211E+02 -0.20059569893E+02  0.40659132938E+02  0.00000000000E+00 0. -1.
         11    1    3    3    0    0  0.10238391023E+02  0.14512255481E+01 -0.37155824647E+01  0.10988005262E+02  0.51100000000E-03 0. -1.
        -11    1    3    3    0    0  0.10956755588E+02  0.36044411615E+01  0.15295490164E+02  0.19157100739E+02  0.51100000000E-03 0.  1.
        -12    1    3    3    0    0  0.60183435957E+01  0.17532044501E+02  0.84796621939E+01  0.20383761060E+02  0.00000000000E+00 0.  1.
</event>
<event>
 7    1  0.5972636E-013  0.5052888E+02  0.7816164E-02  0.1300439E+00
        -11   -1    0    0    0    0  0.00000000000E+00  0.00000000000E+00  0.45593999997E+02  0.45594000000E+02  0.51100000000E-03 0.  1.
         11   -1    0    0    0    0 -0.00000000000E+00 -0.00000000000E+00 -0.45593999997E+02  0.45594000000E+02  0.51100000000E-03 0. -1.
    9900012    2    1    2    0    0  0.38217585044E+02  0.12575673915E+02 -0.58679411518E+01  0.50528879076E+02  0.30000058439E+02 0.  0.
         12    1    1    2    0    0 -0.38217585044E+02 -0.12575673915E+02  0.58679411518E+01  0.40659120924E+02  0.00000000000E+00 0. -1.
         11    1    3    3    0    0 -0.60941548756E+00  0.33847961875E+01 -0.30216942104E+01  0.45780856949E+01  0.51100000000E-03 0. -1.
        -11    1    3    3    0    0  0.35849096143E+02  0.53782261122E+01 -0.97334338101E+01  0.37534287583E+02  0.51100000000E-03 0.  1.
        -12    1    3    3    0    0  0.29779043884E+01  0.38126516150E+01  0.68871868686E+01  0.84165057980E+01  0.00000000000E+00 0.  1.
</event>
<event>
 7    1  0.5972636E-013  0.5052885E+02  0.7816164E-02  0.1300439E+00
        -11   -1    0    0    0    0  0.00000000000E+00  0.00000000000E+00  0.45593999997E+02  0.45594000000E+02  0.51100000000E-03 0. -1.
         11   -1    0    0    0    0 -0.00000000000E+00 -0.00000000000E+00 -0.45593999997E+02  0.45594000000E+02  0.51100000000E-03 0.  1.
    9900012    2    1    2    0    0 -0.31835955426E+02  0.33921039676E+00 -0.25288791111E+02  0.50528854935E+02  0.29999985062E+02 0.  0.
         12    1    1    2    0    0  0.31835955426E+02 -0.33921039676E+00  0.25288791111E+02  0.40659145065E+02  0.00000000000E+00 0. -1.
         11    1    3    3    0    0 -0.88182018149E+01  0.10732290018E+02 -0.61646450415E+01  0.15196893795E+02  0.51100000000E-03 0. -1.
        -11    1    3    3    0    0 -0.23812379560E+02 -0.10978262534E+02 -0.13256181273E+02  0.29381593061E+02  0.51100000000E-03 0.  1.
         12    1    3    3    0    0  0.79462594896E+00  0.58518291315E+00 -0.58679647957E+01  0.59503680797E+01  0.00000000000E+00 0. -1.
</event>
<event>
 7    1  0.5972636E-013  0.5052885E+02  0.7816164E-02  0.1300439E+00
        -11   -1    0    0    0    0  0.00000000000E+00  0.00000000000E+00  0.45593999997E+02  0.45594000000E+02  0.51100000000E-03 0. -1.
         11   -1    0    0    0    0 -0.00000000000E+00 -0.00000000000E+00 -0.45593999997E+02  0.45594000000E+02  0.51100000000E-03 0.  1.
    9900012    2    1    2    0    0 -0.33917346026E+02 -0.69877425182E+01 -0.21306132544E+02  0.50528853539E+02  0.29999980816E+02 0.  0.
         12    1    1    2    0    0  0.33917346026E+02  0.69877425182E+01  0.21306132544E+02  0.40659146461E+02  0.00000000000E+00 0. -1.
         11    1    3    3    0    0 -0.19303339464E+02 -0.14035696116E+02 -0.19195360684E+02  0.30628117016E+02  0.51100000000E-03 0. -1.
        -11    1    3    3    0    0 -0.13789943049E+02  0.21630951344E+01 -0.41215289065E+01  0.14554329619E+02  0.51100000000E-03 0.  1.
         12    1    3    3    0    0 -0.82406351319E+00  0.48848584634E+01  0.20107570462E+01  0.53464069037E+01  0.00000000000E+00 0. -1.
</event>
<event>
 7    1  0.5972636E-013  0.5052886E+02  0.7816164E-02  0.1300439E+00
        -11   -1    0    0    0    0  0.00000000000E+00  0.00000000000E+00  0.45593999997E+02  0.45594000000E+02  0.51100000000E-03 0.  1.
         11   -1    0    0    0    0 -0.00000000000E+00 -0.00000000000E+00 -0.45593999997E+02  0.45594000000E+02  0.51100000000E-03 0. -1.
    9900012    2    1    2    0    0 -0.40516513088E+02  0.30819142414E+01  0.14420099603E+01  0.50528863008E+02  0.30000009599E+02 0.  0.
         12    1    1    2    0    0  0.40516513088E+02 -0.30819142414E+01 -0.14420099603E+01  0.40659136992E+02  0.00000000000E+00 0. -1.
         11    1    3    3    0    0 -0.78068003466E+01 -0.95740957879E+01 -0.60995047500E+01  0.13777278405E+02  0.51100000000E-03 0. -1.
        -11    1    3    3    0    0 -0.15296609623E+02  0.83597100590E+01  0.37046773647E+00  0.17435832783E+02  0.51100000000E-03 0.  1.
         12    1    3    3    0    0 -0.17413103119E+02  0.42962999703E+01  0.71710469739E+01  0.19315751820E+02  0.00000000000E+00 0. -1.
</event>
<event>
 7    1  0.5972636E-013  0.5052885E+02  0.7816164E-02  0.1300439E+00
        -11   -1    0    0    0    0  0.00000000000E+00  0.00000000000E+00  0.45593999997E+02  0.45594000000E+02  0.51100000000E-03 0. -1.
         11   -1    0    0    0    0 -0.00000000000E+00 -0.00000000000E+00 -0.45593999997E+02  0.45594000000E+02  0.51100000000E-03 0.  1.
    9900012    2    1    2    0    0  0.26476968958E+02 -0.71621476911E+01 -0.30013999195E+02  0.50528851061E+02  0.29999973286E+02 0.  0.
         12    1    1    2    0    0 -0.26476968958E+02  0.71621476911E+01  0.30013999195E+02  0.40659148939E+02  0.00000000000E+00 0. -1.
         11    1    3    3    0    0 -0.27691790595E+01  0.35737609255E-02  0.18931359558E+01  0.33544492012E+01  0.51100000000E-03 0. -1.
        -11    1    3    3    0    0  0.20384453221E+02  0.26837338641E+01 -0.24540114640E+02  0.32014771393E+02  0.51100000000E-03 0.  1.
         12    1    3    3    0    0  0.88616947965E+01 -0.98494553161E+01 -0.73670205110E+01  0.15159630467E+02  0.00000000000E+00 0. -1.
</event>
<event>
 7    1  0.5972636E-013  0.5052886E+02  0.7816164E-02  0.1300439E+00
        -11   -1    0    0    0    0  0.00000000000E+00  0.00000000000E+00  0.45593999997E+02  0.45594000000E+02  0.51100000000E-03 0. -1.
         11   -1    0    0    0    0 -0.00000000000E+00 -0.00000000000E+00 -0.45593999997E+02  0.45594000000E+02  0.51100000000E-03 0.  1.
    9900012    2    1    2    0    0 -0.15347180835E+02 -0.54103631305E+00 -0.37647532740E+02  0.50528863250E+02  0.30000010334E+02 0.  0.
         12    1    1    2    0    0  0.15347180835E+02  0.54103631305E+00  0.37647532740E+02  0.40659136750E+02  0.00000000000E+00 0. -1.
         11    1    3    3    0    0 -0.13048615575E+02 -0.66898111015E+01 -0.39099426885E+01  0.15175888544E+02  0.51100000000E-03 0. -1.
        -11    1    3    3    0    0 -0.35535679473E+01  0.77339135877E+01 -0.28274829963E+02  0.29528076034E+02  0.51100000000E-03 0.  1.
         12    1    3    3    0    0  0.12550026875E+01 -0.15851387993E+01 -0.54627600880E+01  0.58248986719E+01  0.00000000000E+00 0. -1.
</event>
<event>
 7    1  0.5972636E-013  0.5052886E+02  0.7816164E-02  0.1300439E+00
        -11   -1    0    0    0    0  0.00000000000E+00  0.00000000000E+00  0.45593999997E+02  0.45594000000E+02  0.51100000000E-03 0. -1.
         11   -1    0    0    0    0 -0.00000000000E+00 -0.00000000000E+00 -0.45593999997E+02  0.45594000000E+02  0.51100000000E-03 0.  1.
    9900012    2    1    2    0    0 -0.13286130739E+02  0.20173454749E+02 -0.32705902435E+02  0.50528860799E+02  0.30000002883E+02 0.  0.
         12    1    1    2    0    0  0.13286130739E+02 -0.20173454749E+02  0.32705902435E+02  0.40659139201E+02  0.00000000000E+00 0. -1.
         11    1    3    3    0    0  0.20456758845E+01 -0.51626844415E+01 -0.60064426615E+01  0.81801866833E+01  0.51100000000E-03 0. -1.
        -11    1    3    3    0    0 -0.91728497834E+01  0.12252509737E+02 -0.22641132004E+02  0.27329215626E+02  0.51100000000E-03 0.  1.
         12    1    3    3    0    0 -0.61589568402E+01  0.13083629454E+02 -0.40583277687E+01  0.15019458490E+02  0.00000000000E+00 0. -1.
</event>
<event>
 7    1  0.5972636E-013  0.5052887E+02  0.7816164E-02  0.1300439E+00
        -11   -1    0    0    0    0  0.00000000000E+00  0.00000000000E+00  0.45593999997E+02  0.45594000000E+02  0.51100000000E-03 0. -1.
         11   -1    0    0    0    0 -0.00000000000E+00 -0.00000000000E+00 -0.45593999997E+02  0.45594000000E+02  0.51100000000E-03 0.  1.
    9900012    2    1    2    0    0 -0.12166319105E+02 -0.13142657243E+02 -0.36502271593E+02  0.50528873209E+02  0.30000040607E+02 0.  0.
         12    1    1    2    0    0  0.12166319105E+02  0.13142657243E+02  0.36502271593E+02  0.40659126791E+02  0.00000000000E+00 0. -1.
         11    1    3    3    0    0  0.17640942388E+01  0.64500022135E+01 -0.32618821304E+00  0.66948454836E+01  0.51100000000E-03 0. -1.
        -11    1    3    3    0    0 -0.66501966555E+01 -0.13315166654E+02 -0.24974976480E+02  0.29073497021E+02  0.51100000000E-03 0.  1.
        -12    1    3    3    0    0 -0.72802166882E+01 -0.62774928030E+01 -0.11201106900E+02  0.14760530705E+02  0.00000000000E+00 0.  1.
</event>
<event>
 7    1  0.5972636E-013  0.5052887E+02  0.7816164E-02  0.1300439E+00
        -11   -1    0    0    0    0  0.00000000000E+00  0.00000000000E+00  0.45593999997E+02  0.45594000000E+02  0.51100000000E-03 0.  1.
         11   -1    0    0    0    0 -0.00000000000E+00 -0.00000000000E+00 -0.45593999997E+02  0.45594000000E+02  0.51100000000E-03 0. -1.
    9900012    2    1    2    0    0  0.31392750326E+02  0.20669131944E+02  0.15506357288E+02  0.50528869357E+02  0.30000028897E+02 0.  0.
         12    1    1    2    0    0 -0.31392750326E+02 -0.20669131944E+02 -0.15506357288E+02  0.40659130643E+02  0.00000000000E+00 0. -1.
         11    1    3    3    0    0  0.39467253795E+01  0.69040264885E+01 -0.76425319473E+01  0.11029529355E+02  0.51100000000E-03 0. -1.
        -11    1    3    3    0    0  0.15195212085E+02  0.44540901638E+01  0.73908129804E+01  0.17474481573E+02  0.51100000000E-03 0.  1.
         12    1    3    3    0    0  0.12250812862E+02  0.93110152916E+01  0.15758076255E+02  0.22024858428E+02  0.00000000000E+00 0. -1.
</event>
<event>
 7    1  0.5972636E-013  0.5052886E+02  0.7816164E-02  0.1300439E+00
        -11   -1    0    0    0    0  0.00000000000E+00  0.00000000000E+00  0.45593999997E+02  0.45594000000E+02  0.51100000000E-03 0.  1.
         11   -1    0    0    0    0 -0.00000000000E+00 -0.00000000000E+00 -0.45593999997E+02  0.45594000000E+02  0.51100000000E-03 0. -1.
    9900012    2    1    2    0    0 -0.15621907265E+02 -0.34426321174E+02  0.14964963098E+02  0.50528859617E+02  0.29999999292E+02 0.  0.
         12    1    1    2    0    0  0.15621907265E+02  0.34426321174E+02 -0.14964963098E+02  0.40659140383E+02  0.00000000000E+00 0. -1.
         11    1    3    3    0    0  0.26335111122E+01 -0.14867378723E+01 -0.52908512104E+00  0.30701305519E+01  0.51100000000E-03 0. -1.
        -11    1    3    3    0    0 -0.10497702512E+02 -0.19802465218E+02  0.21504368870E+02  0.31060863920E+02  0.51100000000E-03 0.  1.
        -12    1    3    3    0    0 -0.77577158653E+01 -0.13137118084E+02 -0.60103206503E+01  0.16397865145E+02  0.00000000000E+00 0.  1.
</event>
<event>
 7    1  0.5972636E-013  0.5052886E+02  0.7816164E-02  0.1300439E+00
        -11   -1    0    0    0    0  0.00000000000E+00  0.00000000000E+00  0.45593999997E+02  0.45594000000E+02  0.51100000000E-03 0.  1.
         11   -1    0    0    0    0 -0.00000000000E+00 -0.00000000000E+00 -0.45593999997E+02  0.45594000000E+02  0.51100000000E-03 0. -1.
    9900012    2    1    2    0    0 -0.38537127142E+02 -0.12656382626E+02  0.28055576873E+01  0.50528863961E+02  0.30000012495E+02 0.  0.
         12    1    1    2    0    0  0.38537127142E+02  0.12656382626E+02 -0.28055576873E+01  0.40659136039E+02  0.00000000000E+00 0. -1.
         11    1    3    3    0    0  0.43349631696E+01  0.16577677262E+00 -0.46484458424E+00  0.43629655475E+01  0.51100000000E-03 0. -1.
        -11    1    3    3    0    0 -0.39755910255E+02 -0.13245328906E+02  0.55660546817E+01  0.42272356252E+02  0.51100000000E-03 0.  1.
         12    1    3    3    0    0 -0.31161800562E+01  0.42316950805E+00 -0.22956524102E+01  0.38935421615E+01  0.00000000000E+00 0. -1.
</event>
<event>
 7    1  0.5972636E-013  0.5052885E+02  0.7816164E-02  0.1300439E+00
        -11   -1    0    0    0    0  0.00000000000E+00  0.00000000000E+00  0.45593999997E+02  0.45594000000E+02  0.51100000000E-03 0. -1.
         11   -1    0    0    0    0 -0.00000000000E+00 -0.00000000000E+00 -0.45593999997E+02  0.45594000000E+02  0.51100000000E-03 0.  1.
    9900012    2    1    2    0    0 -0.20381940715E+02 -0.34242305715E+02  0.80751002174E+01  0.50528852794E+02  0.29999978553E+02 0.  0.
         12    1    1    2    0    0  0.20381940715E+02  0.34242305715E+02 -0.80751002174E+01  0.40659147206E+02  0.00000000000E+00 0. -1.
         11    1    3    3    0    0 -0.89024507783E+01 -0.79697316868E+01 -0.10314287463E+02  0.15784637441E+02  0.51100000000E-03 0. -1.
        -11    1    3    3    0    0 -0.76373821638E+01 -0.10907740884E+02  0.58535791713E+01  0.14545542509E+02  0.51100000000E-03 0.  1.
         12    1    3    3    0    0 -0.38421077731E+01 -0.15364833144E+02  0.12535808509E+02  0.20198672844E+02  0.00000000000E+00 0. -1.
</event>
<event>
 7    1  0.5972636E-013  0.5052886E+02  0.7816164E-02  0.1300439E+00
        -11   -1    0    0    0    0  0.00000000000E+00  0.00000000000E+00  0.45593999997E+02  0.45594000000E+02  0.51100000000E-03 0.  1.
         11   -1    0    0    0    0 -0.00000000000E+00 -0.00000000000E+00 -0.45593999997E+02  0.45594000000E+02  0.51100000000E-03 0. -1.
    9900012    2    1    2    0    0 -0.54903971842E+01 -0.24314097325E+02  0.32122354747E+02  0.50528862473E+02  0.30000007972E+02 0.  0.
         12    1    1    2    0    0  0.54903971842E+01  0.24314097325E+02 -0.32122354747E+02  0.40659137527E+02  0.00000000000E+00 0. -1.
         11    1    3    3    0    0 -0.40729543872E+01 -0.16839694341E+02  0.31869523547E+00  0.17328180223E+02  0.51100000000E-03 0. -1.
        -11    1    3    3    0    0 -0.85823909965E+00 -0.83022872462E+01  0.25858516500E+02  0.27172181063E+02  0.51100000000E-03 0.  1.
         12    1    3    3    0    0 -0.55920369735E+00  0.82788426249E+00  0.59451430114E+01  0.60285011863E+01  0.00000000000E+00 0. -1.
</event>
<event>
 7    1  0.5972636E-013  0.5052886E+02  0.7816164E-02  0.1300439E+00
        -11   -1    0    0    0    0  0.00000000000E+00  0.00000000000E+00  0.45593999997E+02  0.45594000000E+02  0.51100000000E-03 0.  1.
         11   -1    0    0    0    0 -0.00000000000E+00 -0.00000000000E+00 -0.45593999997E+02  0.45594000000E+02  0.51100000000E-03 0. -1.
    9900012    2    1    2    0    0  0.59775979581E+00  0.27029430484E+02  0.30368043612E+02  0.50528862013E+02  0.30000006573E+02 0.  0.
         12    1    1    2    0    0 -0.59775979581E+00 -0.27029430484E+02 -0.30368043612E+02  0.40659137987E+02  0.00000000000E+00 0. -1.
         11    1    3    3    0    0 -0.93274286948E+01  0.10450770922E+02  0.17931678023E+02  0.22754441674E+02  0.51100000000E-03 0. -1.
        -11    1    3    3    0    0  0.11616018049E+01  0.15650786136E+02  0.57563849848E+01  0.16716231447E+02  0.51100000000E-03 0.  1.
         12    1    3    3    0    0  0.87635866858E+01  0.92787342663E+00  0.66799806037E+01  0.11058188892E+02  0.00000000000E+00 0. -1.
</event>
<event>
 7    1  0.5972636E-013  0.5052882E+02  0.7816164E-02  0.1300439E+00
        -11   -1    0    0    0    0  0.00000000000E+00  0.00000000000E+00  0.45593999997E+02  0.45594000000E+02  0.51100000000E-03 0.  1.
         11   -1    0    0    0    0 -0.00000000000E+00 -0.00000000000E+00 -0.45593999997E+02  0.45594000000E+02  0.51100000000E-03 0. -1.
    9900012    2    1    2    0    0  0.28931861982E+01  0.19238784025E+02  0.35702481871E+02  0.50528824543E+02  0.29999892680E+02 0.  0.
         12    1    1    2    0    0 -0.28931861982E+01 -0.19238784025E+02 -0.35702481871E+02  0.40659175457E+02  0.00000000000E+00 0. -1.
         11    1    3    3    0    0 -0.92841733637E+00 -0.79751611204E+01  0.10056928110E+02  0.12868836657E+02  0.51100000000E-03 0. -1.
        -11    1    3    3    0    0  0.33252982996E+01  0.24960908271E+02  0.24273275994E+02  0.34975655509E+02  0.51100000000E-03 0.  1.
        -12    1    3    3    0    0  0.49630523495E+00  0.22530368735E+01  0.13722777669E+01  0.26843323769E+01  0.00000000000E+00 0.  1.
</event>
<event>
 7    1  0.5972636E-013  0.5052886E+02  0.7816164E-02  0.1300439E+00
        -11   -1    0    0    0    0  0.00000000000E+00  0.00000000000E+00  0.45593999997E+02  0.45594000000E+02  0.51100000000E-03 0. -1.
         11   -1    0    0    0    0 -0.00000000000E+00 -0.00000000000E+00 -0.45593999997E+02  0.45594000000E+02  0.51100000000E-03 0.  1.
    9900012    2    1    2    0    0  0.24538136285E+02  0.30556778668E+02 -0.10831824702E+02  0.50528864726E+02  0.30000014820E+02 0.  0.
         12    1    1    2    0    0 -0.24538136285E+02 -0.30556778668E+02  0.10831824702E+02  0.40659135274E+02  0.00000000000E+00 0. -1.
         11    1    3    3    0    0  0.14480212715E+02  0.49731181890E+01 -0.35158477819E+01  0.15708903548E+02  0.51100000000E-03 0. -1.
        -11    1    3    3    0    0 -0.37512616185E+01  0.17223130045E+02 -0.60142489459E+01  0.18624697660E+02  0.51100000000E-03 0.  1.
        -12    1    3    3    0    0  0.13809185188E+02  0.83605304342E+01 -0.13017279743E+01  0.16195263518E+02  0.00000000000E+00 0.  1.
</event>
<event>
 7    1  0.5972636E-013  0.5052884E+02  0.7816164E-02  0.1300439E+00
        -11   -1    0    0    0    0  0.00000000000E+00  0.00000000000E+00  0.45593999997E+02  0.45594000000E+02  0.51100000000E-03 0.  1.
         11   -1    0    0    0    0 -0.00000000000E+00 -0.00000000000E+00 -0.45593999997E+02  0.45594000000E+02  0.51100000000E-03 0. -1.
    9900012    2    1    2    0    0 -0.29547706791E+02  0.82084638670E+01  0.26696845206E+02  0.50528838675E+02  0.29999935636E+02 0.  0.
         12    1    1    2    0    0  0.29547706791E+02 -0.82084638670E+01 -0.26696845206E+02  0.40659161325E+02  0.00000000000E+00 0. -1.
         11    1    3    3    0    0 -0.11529269230E+02  0.97114044503E+01 -0.24624460563E+01  0.15274130621E+02  0.51100000000E-03 0. -1.
        -11    1    3    3    0    0 -0.62176870708E+01  0.31033078557E+01  0.12793210754E+02  0.14558722259E+02  0.51100000000E-03 0.  1.
         12    1    3    3    0    0 -0.11800750491E+02 -0.46062484391E+01  0.16366080509E+02  0.20695985795E+02  0.00000000000E+00 0. -1.
</event>
<event>
 7    1  0.5972636E-013  0.5052886E+02  0.7816164E-02  0.1300439E+00
        -11   -1    0    0    0    0  0.00000000000E+00  0.00000000000E+00  0.45593999997E+02  0.45594000000E+02  0.51100000000E-03 0.  1.
         11   -1    0    0    0    0 -0.00000000000E+00 -0.00000000000E+00 -0.45593999997E+02  0.45594000000E+02  0.51100000000E-03 0. -1.
    9900012    2    1    2    0    0 -0.40119888697E+02  0.36810752066E+01  0.54781271566E+01  0.50528860058E+02  0.30000000631E+02 0.  0.
         12    1    1    2    0    0  0.40119888697E+02 -0.36810752066E+01 -0.54781271566E+01  0.40659139942E+02  0.00000000000E+00 0. -1.
         11    1    3    3    0    0 -0.11606597814E+02 -0.11287745149E+02  0.11211164985E+01  0.16229085182E+02  0.51100000000E-03 0. -1.
        -11    1    3    3    0    0 -0.20362968856E+02  0.65262943189E+01 -0.98588625033E+00  0.21405956884E+02  0.51100000000E-03 0.  1.
         12    1    3    3    0    0 -0.81503220269E+01  0.84425260371E+01  0.53428969084E+01  0.12893817992E+02  0.00000000000E+00 0. -1.
</event>
<event>
 7    1  0.5972636E-013  0.5052889E+02  0.7816164E-02  0.1300439E+00
        -11   -1    0    0    0    0  0.00000000000E+00  0.00000000000E+00  0.45593999997E+02  0.45594000000E+02  0.51100000000E-03 0.  1.
         11   -1    0    0    0    0 -0.00000000000E+00 -0.00000000000E+00 -0.45593999997E+02  0.45594000000E+02  0.51100000000E-03 0. -1.
    9900012    2    1    2    0    0  0.15840757639E+02  0.34214942603E+02  0.15217475907E+02  0.50528886964E+02  0.30000082415E+02 0.  0.
         12    1    1    2    0    0 -0.15840757639E+02 -0.34214942603E+02 -0.15217475907E+02  0.40659113036E+02  0.00000000000E+00 0. -1.
         11    1    3    3    0    0  0.59343046465E+01  0.21697650731E+02 -0.60219777874E+01  0.23286653595E+02  0.51100000000E-03 0. -1.
        -11    1    3    3    0    0  0.79111704208E+01  0.10878770074E+02  0.13392281732E+02  0.18981239844E+02  0.51100000000E-03 0.  1.
         12    1    3    3    0    0  0.19952825712E+01  0.16385217978E+01  0.78471719624E+01  0.82609935255E+01  0.00000000000E+00 0. -1.
</event>
<event>
 7    1  0.5972636E-013  0.5052884E+02  0.7816164E-02  0.1300439E+00
        -11   -1    0    0    0    0  0.00000000000E+00  0.00000000000E+00  0.45593999997E+02  0.45594000000E+02  0.51100000000E-03 0. -1.
         11   -1    0    0    0    0 -0.00000000000E+00 -0.00000000000E+00 -0.45593999997E+02  0.45594000000E+02  0.51100000000E-03 0.  1.
    9900012    2    1    2    0    0  0.25327961574E+02  0.85158423728E+01 -0.30645421513E+02  0.50528842747E+02  0.29999948014E+02 0.  0.
         12    1    1    2    0    0 -0.25327961574E+02 -0.85158423728E+01  0.30645421513E+02  0.40659157253E+02  0.00000000000E+00 0. -1.
         11    1    3    3    0    0 -0.35437992168E+01 -0.44929624877E+01  0.74786348288E+00  0.57710072652E+01  0.51100000000E-03 0. -1.
        -11    1    3    3    0    0  0.16886902370E+02  0.90767702065E+01 -0.20783196188E+02  0.28275368664E+02  0.51100000000E-03 0.  1.
         12    1    3    3    0    0  0.11984858421E+02  0.39320346540E+01 -0.10610088808E+02  0.16482466817E+02  0.00000000000E+00 0. -1.
</event>
<event>
 7    1  0.5972636E-013  0.5052886E+02  0.7816164E-02  0.1300439E+00
        -11   -1    0    0    0    0  0.00000000000E+00  0.00000000000E+00  0.45593999997E+02  0.45594000000E+02  0.51100000000E-03 0. -1.
         11   -1    0    0    0    0 -0.00000000000E+00 -0.00000000000E+00 -0.45593999997E+02  0.45594000000E+02  0.51100000000E-03 0.  1.
    9900012    2    1    2    0    0 -0.46968478253E+01  0.20840971744E+02 -0.34594206332E+02  0.50528860874E+02  0.30000003112E+02 0.  0.
         12    1    1    2    0    0  0.46968478253E+01 -0.20840971744E+02  0.34594206332E+02  0.40659139126E+02  0.00000000000E+00 0. -1.
         11    1    3    3    0    0  0.21640578354E+01  0.65403723751E+01 -0.55631252254E+01  0.88548280421E+01  0.51100000000E-03 0. -1.
        -11    1    3    3    0    0 -0.14552491242E+02  0.14651867682E+02 -0.26442740253E+02  0.33551016978E+02  0.51100000000E-03 0.  1.
        -12    1    3    3    0    0  0.76915855814E+01 -0.35126831278E+00 -0.25883408543E+01  0.81230158538E+01  0.00000000000E+00 0.  1.
</event>
<event>
 7    1  0.5972636E-013  0.5052886E+02  0.7816164E-02  0.1300439E+00
        -11   -1    0    0    0    0  0.00000000000E+00  0.00000000000E+00  0.45593999997E+02  0.45594000000E+02  0.51100000000E-03 0.  1.
         11   -1    0    0    0    0 -0.00000000000E+00 -0.00000000000E+00 -0.45593999997E+02  0.45594000000E+02  0.51100000000E-03 0. -1.
    9900012    2    1    2    0    0  0.18605282733E+02 -0.19500656139E+02  0.30442292966E+02  0.50528864047E+02  0.30000012757E+02 0.  0.
         12    1    1    2    0    0 -0.18605282733E+02  0.19500656139E+02 -0.30442292966E+02  0.40659135953E+02  0.00000000000E+00 0. -1.
         11    1    3    3    0    0 -0.63370641799E+01 -0.55945314628E+01  0.17968673060E+01  0.86421002705E+01  0.51100000000E-03 0. -1.
        -11    1    3    3    0    0  0.19915281279E+02 -0.56923060169E+01  0.21804614050E+02  0.30074274228E+02  0.51100000000E-03 0.  1.
        -12    1    3    3    0    0  0.50270656336E+01 -0.82138186590E+01  0.68408116104E+01  0.11812489549E+02  0.00000000000E+00 0.  1.
</event>
<event>
 7    1  0.5972636E-013  0.5052886E+02  0.7816164E-02  0.1300439E+00
        -11   -1    0    0    0    0  0.00000000000E+00  0.00000000000E+00  0.45593999997E+02  0.45594000000E+02  0.51100000000E-03 0. -1.
         11   -1    0    0    0    0 -0.00000000000E+00 -0.00000000000E+00 -0.45593999997E+02  0.45594000000E+02  0.51100000000E-03 0.  1.
    9900012    2    1    2    0    0  0.17171308567E+02  0.31713680303E+02 -0.18776432728E+02  0.50528858565E+02  0.29999996095E+02 0.  0.
         12    1    1    2    0    0 -0.17171308567E+02 -0.31713680303E+02  0.18776432728E+02  0.40659141435E+02  0.00000000000E+00 0. -1.
         11    1    3    3    0    0  0.12733433773E+02  0.25890830512E+01  0.24159413186E+01  0.13216673538E+02  0.51100000000E-03 0. -1.
        -11    1    3    3    0    0  0.11883466125E+00  0.10719774145E+02 -0.12608119811E+02  0.16549693799E+02  0.51100000000E-03 0.  1.
         12    1    3    3    0    0  0.43190401329E+01  0.18404823106E+02 -0.85842542355E+01  0.20762491229E+02  0.00000000000E+00 0. -1.
</event>
<event>
 7    1  0.5972636E-013  0.5052886E+02  0.7816164E-02  0.1300439E+00
        -11   -1    0    0    0    0  0.00000000000E+00  0.00000000000E+00  0.45593999997E+02  0.45594000000E+02  0.51100000000E-03 0. -1.
         11   -1    0    0    0    0 -0.00000000000E+00 -0.00000000000E+00 -0.45593999997E+02  0.45594000000E+02  0.51100000000E-03 0.  1.
    9900012    2    1    2    0    0 -0.87148165242E+01 -0.33572245577E+02 -0.21216078504E+02  0.50528859733E+02  0.29999999645E+02 0.  0.
         12    1    1    2    0    0  0.87148165242E+01  0.33572245577E+02  0.21216078504E+02  0.40659140267E+02  0.00000000000E+00 0. -1.
         11    1    3    3    0    0  0.47603008461E+01 -0.14060194556E+02 -0.27975264576E+01  0.15105485415E+02  0.51100000000E-03 0. -1.
        -11    1    3    3    0    0 -0.15995225484E+02 -0.18894947568E+02 -0.10147895975E+02  0.26755299940E+02  0.51100000000E-03 0.  1.
        -12    1    3    3    0    0  0.25201081134E+01 -0.61710345353E+00 -0.82706560713E+01  0.86680743782E+01  0.00000000000E+00 0.  1.
</event>
<event>
 7    1  0.5972636E-013  0.5052886E+02  0.7816164E-02  0.1300439E+00
        -11   -1    0    0    0    0  0.00000000000E+00  0.00000000000E+00  0.45593999997E+02  0.45594000000E+02  0.51100000000E-03 0.  1.
         11   -1    0    0    0    0 -0.00000000000E+00 -0.00000000000E+00 -0.45593999997E+02  0.45594000000E+02  0.51100000000E-03 0. -1.
    9900012    2    1    2    0    0 -0.15426102064E+02 -0.40662821895E+01  0.37398750495E+02  0.50528858170E+02  0.29999994895E+02 0.  0.
         12    1    1    2    0    0  0.15426102064E+02  0.40662821895E+01 -0.37398750495E+02  0.40659141830E+02  0.00000000000E+00 0. -1.
         11    1    3    3    0    0 -0.10988399795E+02 -0.58535063170E+01  0.23991041911E+01  0.12679281030E+02  0.51100000000E-03 0. -1.
        -11    1    3    3    0    0  0.46655439861E+01  0.17950456908E+01  0.16343908376E+02  0.17091308638E+02  0.51100000000E-03 0.  1.
         12    1    3    3    0    0 -0.91032462554E+01 -0.78215633102E-02  0.18655737928E+02  0.20758268502E+02  0.00000000000E+00 0. -1.
</event>
<event>
 7    1  0.5972636E-013  0.5052886E+02  0.7816164E-02  0.1300439E+00
        -11   -1    0    0    0    0  0.00000000000E+00  0.00000000000E+00  0.45593999997E+02  0.45594000000E+02  0.51100000000E-03 0. -1.
         11   -1    0    0    0    0 -0.00000000000E+00 -0.00000000000E+00 -0.45593999997E+02  0.45594000000E+02  0.51100000000E-03 0.  1.
    9900012    2    1    2    0    0  0.38975123304E+02 -0.19058077171E+01 -0.11422501933E+02  0.50528857239E+02  0.29999992065E+02 0.  0.
         12    1    1    2    0    0 -0.38975123304E+02  0.19058077171E+01  0.11422501933E+02  0.40659142761E+02  0.00000000000E+00 0. -1.
         11    1    3    3    0    0  0.20423412793E+02 -0.12135049903E+02 -0.11921810456E+01  0.23786477717E+02  0.51100000000E-03 0. -1.
        -11    1    3    3    0    0  0.10014902600E+02  0.62283058017E+01 -0.12352654548E+02  0.17078587233E+02  0.51100000000E-03 0.  1.
        -12    1    3    3    0    0  0.85368079106E+01  0.40009363840E+01  0.21223336599E+01  0.96637922895E+01  0.00000000000E+00 0.  1.
</event>
<event>
 7    1  0.5972636E-013  0.5052886E+02  0.7816164E-02  0.1300439E+00
        -11   -1    0    0    0    0  0.00000000000E+00  0.00000000000E+00  0.45593999997E+02  0.45594000000E+02  0.51100000000E-03 0.  1.
         11   -1    0    0    0    0 -0.00000000000E+00 -0.00000000000E+00 -0.45593999997E+02  0.45594000000E+02  0.51100000000E-03 0. -1.
    9900012    2    1    2    0    0 -0.25598965065E+02 -0.16504596621E+01  0.31545749211E+02  0.50528864215E+02  0.30000013269E+02 0.  0.
         12    1    1    2    0    0  0.25598965065E+02  0.16504596621E+01 -0.31545749211E+02  0.40659135785E+02  0.00000000000E+00 0. -1.
         11    1    3    3    0    0 -0.14170014771E+02 -0.57253598230E+01  0.47411738364E+01  0.16001493472E+02  0.51100000000E-03 0.  1.
        -11    1    3    3    0    0 -0.19885417972E+00  0.90928889137E+01  0.14590071129E+02  0.17192741131E+02  0.51100000000E-03 0. -1.
         12    1    3    3    0    0 -0.11230096114E+02 -0.50179887527E+01  0.12214504245E+02  0.17334629612E+02  0.00000000000E+00 0. -1.
</event>
<event>
 7    1  0.5972636E-013  0.5052885E+02  0.7816164E-02  0.1300439E+00
        -11   -1    0    0    0    0  0.00000000000E+00  0.00000000000E+00  0.45593999997E+02  0.45594000000E+02  0.51100000000E-03 0.  1.
         11   -1    0    0    0    0 -0.00000000000E+00 -0.00000000000E+00 -0.45593999997E+02  0.45594000000E+02  0.51100000000E-03 0. -1.
    9900012    2    1    2    0    0  0.10042254022E+01  0.38495335687E+02  0.13048643264E+02  0.50528850608E+02  0.29999971907E+02 0.  0.
         12    1    1    2    0    0 -0.10042254022E+01 -0.38495335687E+02 -0.13048643264E+02  0.40659149392E+02  0.00000000000E+00 0. -1.
         11    1    3    3    0    0 -0.70012904178E+01  0.41553096187E+01  0.10209860145E+02  0.13058556964E+02  0.51100000000E-03 0. -1.
        -11    1    3    3    0    0  0.57874506697E+01  0.12771692000E+02  0.65443737505E+01  0.15473833715E+02  0.51100000000E-03 0.  1.
         12    1    3    3    0    0  0.22180651503E+01  0.21568334068E+02 -0.37055906310E+01  0.21996459929E+02  0.00000000000E+00 0. -1.
</event>
<event>
 7    1  0.5972636E-013  0.5052884E+02  0.7816164E-02  0.1300439E+00
        -11   -1    0    0    0    0  0.00000000000E+00  0.00000000000E+00  0.45593999997E+02  0.45594000000E+02  0.51100000000E-03 0.  1.
         11   -1    0    0    0    0 -0.00000000000E+00 -0.00000000000E+00 -0.45593999997E+02  0.45594000000E+02  0.51100000000E-03 0. -1.
    9900012    2    1    2    0    0  0.34177302136E+02 -0.46775814604E+01  0.21522073884E+02  0.50528838500E+02  0.29999935104E+02 0.  0.
         12    1    1    2    0    0 -0.34177302136E+02  0.46775814604E+01 -0.21522073884E+02  0.40659161500E+02  0.00000000000E+00 0. -1.
         11    1    3    3    0    0  0.21162845083E+02 -0.90860138591E+01  0.10979409441E+01  0.23057040886E+02  0.51100000000E-03 0. -1.
        -11    1    3    3    0    0  0.66247057443E+01  0.82185420825E+01  0.91803289616E+01  0.13989624736E+02  0.51100000000E-03 0.  1.
        -12    1    3    3    0    0  0.63897513091E+01 -0.38101096838E+01  0.11243803978E+02  0.13482172877E+02  0.00000000000E+00 0.  1.
</event>
<event>
 7    1  0.5972636E-013  0.5052886E+02  0.7816164E-02  0.1300439E+00
        -11   -1    0    0    0    0  0.00000000000E+00  0.00000000000E+00  0.45593999997E+02  0.45594000000E+02  0.51100000000E-03 0. -1.
         11   -1    0    0    0    0 -0.00000000000E+00 -0.00000000000E+00 -0.45593999997E+02  0.45594000000E+02  0.51100000000E-03 0.  1.
    9900012    2    1    2    0    0  0.40595252579E+01  0.14884272586E+02 -0.37618404485E+02  0.50528859923E+02  0.30000000223E+02 0.  0.
         12    1    1    2    0    0 -0.40595252579E+01 -0.14884272586E+02  0.37618404485E+02  0.40659140077E+02  0.00000000000E+00 0. -1.
         11    1    3    3    0    0  0.17808889960E+01 -0.23780600816E+01 -0.61901258787E+01  0.68661775409E+01  0.51100000000E-03 0. -1.
        -11    1    3    3    0    0 -0.10127204987E+02  0.96412664847E+01 -0.80874585621E+01  0.16153058117E+02  0.51100000000E-03 0.  1.
        -12    1    3    3    0    0  0.12405841249E+02  0.76210661833E+01 -0.23340820044E+02  0.27509624265E+02  0.00000000000E+00 0.  1.
</event>
<event>
 7    1  0.5972636E-013  0.5052885E+02  0.7816164E-02  0.1300439E+00
        -11   -1    0    0    0    0  0.00000000000E+00  0.00000000000E+00  0.45593999997E+02  0.45594000000E+02  0.51100000000E-03 0. -1.
         11   -1    0    0    0    0 -0.00000000000E+00 -0.00000000000E+00 -0.45593999997E+02  0.45594000000E+02  0.51100000000E-03 0.  1.
    9900012    2    1    2    0    0 -0.28868297795E+02 -0.28548284031E+02  0.21869953746E+01  0.50528854812E+02  0.29999984686E+02 0.  0.
         12    1    1    2    0    0  0.28868297795E+02  0.28548284031E+02 -0.21869953746E+01  0.40659145188E+02  0.00000000000E+00 0. -1.
         11    1    3    3    0    0 -0.12824997060E+02 -0.64600638644E+01  0.11284948701E+02  0.18263708335E+02  0.51100000000E-03 0. -1.
        -11    1    3    3    0    0 -0.28561097286E+01 -0.75185158641E+01 -0.97048637074E+01  0.12604357319E+02  0.51100000000E-03 0.  1.
        -12    1    3    3    0    0 -0.13187191007E+02 -0.14569704302E+02  0.60691038147E+00  0.19660789158E+02  0.00000000000E+00 0.  1.
</event>
<event>
 7    1  0.5972636E-013  0.5052885E+02  0.7816164E-02  0.1300439E+00
        -11   -1    0    0    0    0  0.00000000000E+00  0.00000000000E+00  0.45593999997E+02  0.45594000000E+02  0.51100000000E-03 0.  1.
         11   -1    0    0    0    0 -0.00000000000E+00 -0.00000000000E+00 -0.45593999997E+02  0.45594000000E+02  0.51100000000E-03 0. -1.
    9900012    2    1    2    0    0 -0.32164572278E+02 -0.49013264053E+01  0.24384092553E+02  0.50528847525E+02  0.29999962536E+02 0.  0.
         12    1    1    2    0    0  0.32164572278E+02  0.49013264053E+01 -0.24384092553E+02  0.40659152475E+02  0.00000000000E+00 0. -1.
         11    1    3    3    0    0 -0.19777223349E+02 -0.10538052594E+02  0.51601381878E+01  0.22996002746E+02  0.51100000000E-03 0. -1.
        -11    1    3    3    0    0 -0.15098670898E+02  0.60869170995E+01  0.13370839131E+02  0.21066555532E+02  0.51100000000E-03 0.  1.
         12    1    3    3    0    0  0.27113219695E+01 -0.45019091036E+00  0.58531152347E+01  0.64662892472E+01  0.00000000000E+00 0. -1.
</event>
<event>
 7    1  0.5972636E-013  0.5052887E+02  0.7816164E-02  0.1300439E+00
        -11   -1    0    0    0    0  0.00000000000E+00  0.00000000000E+00  0.45593999997E+02  0.45594000000E+02  0.51100000000E-03 0.  1.
         11   -1    0    0    0    0 -0.00000000000E+00 -0.00000000000E+00 -0.45593999997E+02  0.45594000000E+02  0.51100000000E-03 0. -1.
    9900012    2    1    2    0    0 -0.37156419031E+02 -0.46871469274E+01  0.15830218625E+02  0.50528872572E+02  0.30000038670E+02 0.  0.
         12    1    1    2    0    0  0.37156419031E+02  0.46871469274E+01 -0.15830218625E+02  0.40659127428E+02  0.00000000000E+00 0. -1.
         11    1    3    3    0    0 -0.10082942204E+02 -0.96721311215E+01  0.22647098042E+01  0.14154319294E+02  0.51100000000E-03 0. -1.
        -11    1    3    3    0    0 -0.82585048430E+01  0.10248775258E+02  0.99633649860E+01  0.16507844761E+02  0.51100000000E-03 0.  1.
         12    1    3    3    0    0 -0.18814971983E+02 -0.52637910643E+01  0.36021438344E+01  0.19866708517E+02  0.00000000000E+00 0. -1.
</event>
<event>
 7    1  0.5972636E-013  0.5052884E+02  0.7816164E-02  0.1300439E+00
        -11   -1    0    0    0    0  0.00000000000E+00  0.00000000000E+00  0.45593999997E+02  0.45594000000E+02  0.51100000000E-03 0.  1.
         11   -1    0    0    0    0 -0.00000000000E+00 -0.00000000000E+00 -0.45593999997E+02  0.45594000000E+02  0.51100000000E-03 0. -1.
    9900012    2    1    2    0    0 -0.18311037859E+02 -0.23779427940E+02  0.27430124559E+02  0.50528843172E+02  0.29999949307E+02 0.  0.
         12    1    1    2    0    0  0.18311037859E+02  0.23779427940E+02 -0.27430124559E+02  0.40659156828E+02  0.00000000000E+00 0. -1.
         11    1    3    3    0    0  0.82451165249E+00  0.20099488059E+01  0.18615814105E+01  0.28609787270E+01  0.51100000000E-03 0. -1.
        -11    1    3    3    0    0 -0.22961672370E+02 -0.12796984484E+02  0.19970731447E+02  0.33012593426E+02  0.51100000000E-03 0.  1.
        -12    1    3    3    0    0  0.38261228582E+01 -0.12992392262E+02  0.55978117012E+01  0.14655271020E+02  0.00000000000E+00 0.  1.
</event>
<event>
 7    1  0.5972636E-013  0.5052880E+02  0.7816164E-02  0.1300439E+00
        -11   -1    0    0    0    0  0.00000000000E+00  0.00000000000E+00  0.45593999997E+02  0.45594000000E+02  0.51100000000E-03 0.  1.
         11   -1    0    0    0    0 -0.00000000000E+00 -0.00000000000E+00 -0.45593999997E+02  0.45594000000E+02  0.51100000000E-03 0. -1.
    9900012    2    1    2    0    0  0.20374036692E+02  0.25851680110E+02  0.23869633603E+02  0.50528804927E+02  0.29999833056E+02 0.  0.
         12    1    1    2    0    0 -0.20374036692E+02 -0.25851680110E+02 -0.23869633603E+02  0.40659195073E+02  0.00000000000E+00 0. -1.
         11    1    3    3    0    0 -0.24270905396E+01  0.16670407929E+02  0.14479510844E+02  0.22213723316E+02  0.51100000000E-03 0. -1.
        -11    1    3    3    0    0  0.16385898130E+02  0.92056696795E+01  0.10896937815E+02  0.21725221881E+02  0.51100000000E-03 0.  1.
         12    1    3    3    0    0  0.64152291008E+01 -0.24397498774E-01 -0.15068150550E+01  0.65898597302E+01  0.00000000000E+00 0. -1.
</event>
<event>
 7    1  0.5972636E-013  0.5052886E+02  0.7816164E-02  0.1300439E+00
        -11   -1    0    0    0    0  0.00000000000E+00  0.00000000000E+00  0.45593999997E+02  0.45594000000E+02  0.51100000000E-03 0.  1.
         11   -1    0    0    0    0 -0.00000000000E+00 -0.00000000000E+00 -0.45593999997E+02  0.45594000000E+02  0.51100000000E-03 0. -1.
    9900012    2    1    2    0    0  0.25930435107E+01 -0.25065971466E+02  0.31908290530E+02  0.50528858288E+02  0.29999995253E+02 0.  0.
         12    1    1    2    0    0 -0.25930435107E+01  0.25065971466E+02 -0.31908290530E+02  0.40659141712E+02  0.00000000000E+00 0. -1.
         11    1    3    3    0    0 -0.26770826081E+01 -0.25251034883E+01  0.97411711462E+00  0.38068127523E+01  0.51100000000E-03 0. -1.
        -11    1    3    3    0    0  0.72987456238E+01 -0.13796777236E+01  0.22768431703E+02  0.23949460970E+02  0.51100000000E-03 0.  1.
        -12    1    3    3    0    0 -0.20286195051E+01 -0.21161190254E+02  0.81657417124E+01  0.22772584565E+02  0.00000000000E+00 0.  1.
</event>
<event>
 7    1  0.5972636E-013  0.5052886E+02  0.7816164E-02  0.1300439E+00
        -11   -1    0    0    0    0  0.00000000000E+00  0.00000000000E+00  0.45593999997E+02  0.45594000000E+02  0.51100000000E-03 0.  1.
         11   -1    0    0    0    0 -0.00000000000E+00 -0.00000000000E+00 -0.45593999997E+02  0.45594000000E+02  0.51100000000E-03 0. -1.
    9900012    2    1    2    0    0  0.16490337515E+02 -0.61861085647E+01  0.36646505710E+02  0.50528861405E+02  0.30000004725E+02 0.  0.
         12    1    1    2    0    0 -0.16490337515E+02  0.61861085647E+01 -0.36646505710E+02  0.40659138595E+02  0.00000000000E+00 0. -1.
         11    1    3    3    0    0  0.10231493367E+02  0.35335060325E+01  0.32638832597E+02  0.34386952685E+02  0.51100000000E-03 0.  1.
        -11    1    3    3    0    0 -0.23057561915E+01 -0.54910608247E+01  0.53853013258E+00  0.59798223686E+01  0.51100000000E-03 0. -1.
         12    1    3    3    0    0  0.85646003392E+01 -0.42285537725E+01  0.34691429804E+01  0.10162086351E+02  0.00000000000E+00 0. -1.
</event>
<event>
 7    1  0.5972636E-013  0.5052886E+02  0.7816164E-02  0.1300439E+00
        -11   -1    0    0    0    0  0.00000000000E+00  0.00000000000E+00  0.45593999997E+02  0.45594000000E+02  0.51100000000E-03 0.  1.
         11   -1    0    0    0    0 -0.00000000000E+00 -0.00000000000E+00 -0.45593999997E+02  0.45594000000E+02  0.51100000000E-03 0. -1.
    9900012    2    1    2    0    0  0.20367323242E+02  0.23819969016E+02  0.25902648861E+02  0.50528855911E+02  0.29999988028E+02 0.  0.
         12    1    1    2    0    0 -0.20367323242E+02 -0.23819969016E+02 -0.25902648861E+02  0.40659144089E+02  0.00000000000E+00 0. -1.
         11    1    3    3    0    0  0.15304954548E+02  0.15099544285E+01  0.49420500142E+01  0.16153806199E+02  0.51100000000E-03 0. -1.
        -11    1    3    3    0    0  0.96265335597E+01  0.19124396978E+02  0.18473661100E+02  0.28278770533E+02  0.51100000000E-03 0.  1.
        -12    1    3    3    0    0 -0.45641648658E+01  0.31856176102E+01  0.24869377470E+01  0.60962791798E+01  0.00000000000E+00 0.  1.
</event>
<event>
 7    1  0.5972636E-013  0.5052885E+02  0.7816164E-02  0.1300439E+00
        -11   -1    0    0    0    0  0.00000000000E+00  0.00000000000E+00  0.45593999997E+02  0.45594000000E+02  0.51100000000E-03 0.  1.
         11   -1    0    0    0    0 -0.00000000000E+00 -0.00000000000E+00 -0.45593999997E+02  0.45594000000E+02  0.51100000000E-03 0. -1.
    9900012    2    1    2    0    0 -0.39556427366E+02  0.92911091205E+01 -0.14596037584E+01  0.50528854685E+02  0.29999984300E+02 0.  0.
         12    1    1    2    0    0  0.39556427366E+02 -0.92911091205E+01  0.14596037584E+01  0.40659145315E+02  0.00000000000E+00 0. -1.
         11    1    3    3    0    0 -0.19704483970E+01 -0.32162905622E+01  0.30829631053E+01  0.48715350390E+01  0.51100000000E-03 0. -1.
        -11    1    3    3    0    0 -0.27909189532E+02  0.12330137690E+02 -0.12651865403E+02  0.33030665362E+02  0.51100000000E-03 0.  1.
        -12    1    3    3    0    0 -0.96767894367E+01  0.17726199261E+00  0.81092985394E+01  0.12626654284E+02  0.00000000000E+00 0.  1.
</event>
<event>
 7    1  0.5972636E-013  0.5052887E+02  0.7816164E-02  0.1300439E+00
        -11   -1    0    0    0    0  0.00000000000E+00  0.00000000000E+00  0.45593999997E+02  0.45594000000E+02  0.51100000000E-03 0. -1.
         11   -1    0    0    0    0 -0.00000000000E+00 -0.00000000000E+00 -0.45593999997E+02  0.45594000000E+02  0.51100000000E-03 0.  1.
    9900012    2    1    2    0    0  0.35719310499E+02  0.87828916993E+01 -0.17325037329E+02  0.50528865140E+02  0.30000016080E+02 0.  0.
         12    1    1    2    0    0 -0.35719310499E+02 -0.87828916993E+01  0.17325037329E+02  0.40659134860E+02  0.00000000000E+00 0. -1.
         11    1    3    3    0    0 -0.14231601426E+01 -0.12261473828E+01 -0.11841133130E+01  0.22205735284E+01  0.51100000000E-03 0. -1.
        -11    1    3    3    0    0  0.38576090384E+02  0.12366476429E+02 -0.10224596627E+02  0.41780220979E+02  0.51100000000E-03 0.  1.
        -12    1    3    3    0    0 -0.14336197430E+01 -0.23574373470E+01 -0.59163273891E+01  0.65280706328E+01  0.00000000000E+00 0.  1.
</event>
<event>
 7    1  0.5972636E-013  0.5052885E+02  0.7816164E-02  0.1300439E+00
        -11   -1    0    0    0    0  0.00000000000E+00  0.00000000000E+00  0.45593999997E+02  0.45594000000E+02  0.51100000000E-03 0.  1.
         11   -1    0    0    0    0 -0.00000000000E+00 -0.00000000000E+00 -0.45593999997E+02  0.45594000000E+02  0.51100000000E-03 0. -1.
    9900012    2    1    2    0    0  0.19963088172E+02  0.20469871087E+02  0.28907188900E+02  0.50528854881E+02  0.29999984896E+02 0.  0.
         12    1    1    2    0    0 -0.19963088172E+02 -0.20469871087E+02 -0.28907188900E+02  0.40659145119E+02  0.00000000000E+00 0. -1.
         11    1    3    3    0    0 -0.34072946640E+01  0.60118662639E+00 -0.18826394194E+01  0.39389609965E+01  0.51100000000E-03 0. -1.
        -11    1    3    3    0    0  0.15830523261E+02  0.12350337863E+02  0.29749978087E+02  0.35891468463E+02  0.51100000000E-03 0.  1.
        -12    1    3    3    0    0  0.75398595753E+01  0.75183465980E+01  0.10398502333E+01  0.10698425421E+02  0.00000000000E+00 0.  1.
</event>
<event>
 7    1  0.5972636E-013  0.5052886E+02  0.7816164E-02  0.1300439E+00
        -11   -1    0    0    0    0  0.00000000000E+00  0.00000000000E+00  0.45593999997E+02  0.45594000000E+02  0.51100000000E-03 0. -1.
         11   -1    0    0    0    0 -0.00000000000E+00 -0.00000000000E+00 -0.45593999997E+02  0.45594000000E+02  0.51100000000E-03 0.  1.
    9900012    2    1    2    0    0 -0.33812510473E+02 -0.21377284179E+02  0.72726466995E+01  0.50528861626E+02  0.30000005397E+02 0.  0.
         12    1    1    2    0    0  0.33812510473E+02  0.21377284179E+02 -0.72726466995E+01  0.40659138374E+02  0.00000000000E+00 0. -1.
         11    1    3    3    0    0 -0.48201252687E+01 -0.80482623442E+01  0.14207716525E+02  0.17025490991E+02  0.51100000000E-03 0. -1.
        -11    1    3    3    0    0 -0.23706561330E+02 -0.12379210698E+02 -0.31410371089E+01  0.26927904151E+02  0.51100000000E-03 0.  1.
         12    1    3    3    0    0 -0.52858238739E+01 -0.94981113653E+00 -0.37940327165E+01  0.65754664834E+01  0.00000000000E+00 0. -1.
</event>
<event>
 7    1  0.5972636E-013  0.5052886E+02  0.7816164E-02  0.1300439E+00
        -11   -1    0    0    0    0  0.00000000000E+00  0.00000000000E+00  0.45593999997E+02  0.45594000000E+02  0.51100000000E-03 0. -1.
         11   -1    0    0    0    0 -0.00000000000E+00 -0.00000000000E+00 -0.45593999997E+02  0.45594000000E+02  0.51100000000E-03 0.  1.
    9900012    2    1    2    0    0 -0.23429393728E+02 -0.33044684880E+02 -0.35039828923E+01  0.50528860986E+02  0.30000003453E+02 0.  0.
         12    1    1    2    0    0  0.23429393728E+02  0.33044684880E+02  0.35039828923E+01  0.40659139014E+02  0.00000000000E+00 0. -1.
         11    1    3    3    0    0  0.49581324444E+01 -0.37004492355E+01  0.39328682055E+01  0.73310200153E+01  0.51100000000E-03 0. -1.
        -11    1    3    3    0    0 -0.24730437134E+02 -0.17892016601E+02 -0.56835913468E+01  0.31048703511E+02  0.51100000000E-03 0.  1.
         12    1    3    3    0    0 -0.36570890391E+01 -0.11452219043E+02 -0.17532597511E+01  0.12149137460E+02  0.00000000000E+00 0. -1.
</event>
<event>
 7    1  0.5972636E-013  0.5052899E+02  0.7816164E-02  0.1300438E+00
        -11   -1    0    0    0    0  0.00000000000E+00  0.00000000000E+00  0.45593999997E+02  0.45594000000E+02  0.51100000000E-03 0. -1.
         11   -1    0    0    0    0 -0.00000000000E+00 -0.00000000000E+00 -0.45593999997E+02  0.45594000000E+02  0.51100000000E-03 0.  1.
    9900012    2    1    2    0    0 -0.14933083571E+02 -0.34383735865E+02 -0.15745382906E+02  0.50528986733E+02  0.30000385671E+02 0.  0.
         12    1    1    2    0    0  0.14933083571E+02  0.34383735865E+02  0.15745382906E+02  0.40659013267E+02  0.00000000000E+00 0. -1.
         11    1    3    3    0    0  0.53246282512E+00  0.13213887842E+01  0.25673520217E+00  0.14475835742E+01  0.51100000000E-03 0. -1.
        -11    1    3    3    0    0 -0.75524033859E+01 -0.37292819490E+02 -0.15189776385E+02  0.40969775314E+02  0.51100000000E-03 0.  1.
        -12    1    3    3    0    0 -0.79131430103E+01  0.15876948405E+01 -0.81234172319E+00  0.81116278442E+01  0.00000000000E+00 0.  1.
</event>
<event>
 7    1  0.5972636E-013  0.5052887E+02  0.7816164E-02  0.1300439E+00
        -11   -1    0    0    0    0  0.00000000000E+00  0.00000000000E+00  0.45593999997E+02  0.45594000000E+02  0.51100000000E-03 0.  1.
         11   -1    0    0    0    0 -0.00000000000E+00 -0.00000000000E+00 -0.45593999997E+02  0.45594000000E+02  0.51100000000E-03 0. -1.
    9900012    2    1    2    0    0 -0.84138820811E+01 -0.17937765685E+02  0.35505044765E+02  0.50528867530E+02  0.30000023343E+02 0.  0.
         12    1    1    2    0    0  0.84138820811E+01  0.17937765685E+02 -0.35505044765E+02  0.40659132470E+02  0.00000000000E+00 0. -1.
         11    1    3    3    0    0 -0.64406329586E+01 -0.32060861052E+00 -0.23387351407E+01  0.68596082328E+01  0.51100000000E-03 0. -1.
        -11    1    3    3    0    0 -0.40628721385E+01 -0.18325613999E+02  0.28926088243E+02  0.34482657087E+02  0.51100000000E-03 0.  1.
        -12    1    3    3    0    0  0.20896230160E+01  0.70845692453E+00  0.89176916635E+01  0.91866022102E+01  0.00000000000E+00 0.  1.
</event>
<event>
 7    1  0.5972636E-013  0.5052878E+02  0.7816164E-02  0.1300439E+00
        -11   -1    0    0    0    0  0.00000000000E+00  0.00000000000E+00  0.45593999997E+02  0.45594000000E+02  0.51100000000E-03 0.  1.
         11   -1    0    0    0    0 -0.00000000000E+00 -0.00000000000E+00 -0.45593999997E+02  0.45594000000E+02  0.51100000000E-03 0. -1.
    9900012    2    1    2    0    0  0.10663235104E+00  0.38049169991E+02  0.14332518747E+02  0.50528784549E+02  0.29999771116E+02 0.  0.
         12    1    1    2    0    0 -0.10663235104E+00 -0.38049169991E+02 -0.14332518747E+02  0.40659215451E+02  0.00000000000E+00 0. -1.
         11    1    3    3    0    0  0.30773950972E+01  0.30474623241E+01 -0.22578260181E+01  0.48841750368E+01  0.51100000000E-03 0. -1.
        -11    1    3    3    0    0 -0.89283789863E+01  0.17176368281E+02  0.18470331273E+02  0.26756246303E+02  0.51100000000E-03 0.  1.
        -12    1    3    3    0    0  0.59576162401E+01  0.17825339385E+02 -0.18799865079E+01  0.18888363209E+02  0.00000000000E+00 0.  1.
</event>
<event>
 7    1  0.5972636E-013  0.5052887E+02  0.7816164E-02  0.1300439E+00
        -11   -1    0    0    0    0  0.00000000000E+00  0.00000000000E+00  0.45593999997E+02  0.45594000000E+02  0.51100000000E-03 0.  1.
         11   -1    0    0    0    0 -0.00000000000E+00 -0.00000000000E+00 -0.45593999997E+02  0.45594000000E+02  0.51100000000E-03 0. -1.
    9900012    2    1    2    0    0 -0.15350730062E+02 -0.19462766349E+02  0.32229188387E+02  0.50528870994E+02  0.30000033874E+02 0.  0.
         12    1    1    2    0    0  0.15350730062E+02  0.19462766349E+02 -0.32229188387E+02  0.40659129006E+02  0.00000000000E+00 0. -1.
         11    1    3    3    0    0  0.53943586763E+01 -0.44799816935E+01  0.15313222756E+02  0.16842331577E+02  0.51100000000E-03 0. -1.
        -11    1    3    3    0    0 -0.40643566348E+01 -0.10628955079E+02  0.98668370771E+01  0.15061479180E+02  0.51100000000E-03 0.  1.
         12    1    3    3    0    0 -0.16680732103E+02 -0.43538295770E+01  0.70491285540E+01  0.18625060238E+02  0.00000000000E+00 0. -1.
</event>
<event>
 7    1  0.5972636E-013  0.5052886E+02  0.7816164E-02  0.1300439E+00
        -11   -1    0    0    0    0  0.00000000000E+00  0.00000000000E+00  0.45593999997E+02  0.45594000000E+02  0.51100000000E-03 0.  1.
         11   -1    0    0    0    0 -0.00000000000E+00 -0.00000000000E+00 -0.45593999997E+02  0.45594000000E+02  0.51100000000E-03 0. -1.
    9900012    2    1    2    0    0  0.23038914253E+02 -0.17031946867E+01  0.33458534672E+02  0.50528856078E+02  0.29999988535E+02 0.  0.
         12    1    1    2    0    0 -0.23038914253E+02  0.17031946867E+01 -0.33458534672E+02  0.40659143922E+02  0.00000000000E+00 0. -1.
         11    1    3    3    0    0 -0.45467450725E+01 -0.96904801359E+00  0.16010462424E+02  0.16671738125E+02  0.51100000000E-03 0.  1.
        -11    1    3    3    0    0  0.21605997389E+02 -0.40686981302E+01  0.14865204352E+02  0.26539550266E+02  0.51100000000E-03 0. -1.
         12    1    3    3    0    0  0.59796619363E+01  0.33345514571E+01  0.25828678959E+01  0.73175676874E+01  0.00000000000E+00 0. -1.
</event>
<event>
 7    1  0.5972636E-013  0.5052888E+02  0.7816164E-02  0.1300439E+00
        -11   -1    0    0    0    0  0.00000000000E+00  0.00000000000E+00  0.45593999997E+02  0.45594000000E+02  0.51100000000E-03 0.  1.
         11   -1    0    0    0    0 -0.00000000000E+00 -0.00000000000E+00 -0.45593999997E+02  0.45594000000E+02  0.51100000000E-03 0. -1.
    9900012    2    1    2    0    0  0.34628267552E+02 -0.15979506814E+02 -0.14096182825E+02  0.50528881443E+02  0.30000065633E+02 0.  0.
         12    1    1    2    0    0 -0.34628267552E+02  0.15979506814E+02  0.14096182825E+02  0.40659118557E+02  0.00000000000E+00 0. -1.
         11    1    3    3    0    0  0.27737452550E+02 -0.35092899978E+01  0.10592091905E+01  0.27978622457E+02  0.51100000000E-03 0. -1.
        -11    1    3    3    0    0  0.40794758749E+01 -0.83519902660E+01 -0.36052293725E+01  0.99697313858E+01  0.51100000000E-03 0.  1.
         12    1    3    3    0    0  0.28113391270E+01 -0.41182265504E+01 -0.11550162643E+02  0.12580527599E+02  0.00000000000E+00 0. -1.
</event>
<event>
 7    1  0.5972636E-013  0.5052886E+02  0.7816164E-02  0.1300439E+00
        -11   -1    0    0    0    0  0.00000000000E+00  0.00000000000E+00  0.45593999997E+02  0.45594000000E+02  0.51100000000E-03 0.  1.
         11   -1    0    0    0    0 -0.00000000000E+00 -0.00000000000E+00 -0.45593999997E+02  0.45594000000E+02  0.51100000000E-03 0. -1.
    9900012    2    1    2    0    0 -0.13240906059E+02 -0.30382825373E+02  0.23552659128E+02  0.50528862984E+02  0.30000009525E+02 0.  0.
         12    1    1    2    0    0  0.13240906059E+02  0.30382825373E+02 -0.23552659128E+02  0.40659137016E+02  0.00000000000E+00 0. -1.
         11    1    3    3    0    0  0.18898966416E+01  0.18146656008E+01 -0.19320054044E+01  0.32553595350E+01  0.51100000000E-03 0. -1.
        -11    1    3    3    0    0 -0.89942457841E+01 -0.31834140078E+02  0.24216059183E+02  0.40996663942E+02  0.51100000000E-03 0.  1.
        -12    1    3    3    0    0 -0.61365569166E+01 -0.36335089576E+00  0.12686053492E+01  0.62768395069E+01  0.00000000000E+00 0.  1.
</event>
<event>
 7    1  0.5972636E-013  0.5052884E+02  0.7816164E-02  0.1300439E+00
        -11   -1    0    0    0    0  0.00000000000E+00  0.00000000000E+00  0.45593999997E+02  0.45594000000E+02  0.51100000000E-03 0.  1.
         11   -1    0    0    0    0 -0.00000000000E+00 -0.00000000000E+00 -0.45593999997E+02  0.45594000000E+02  0.51100000000E-03 0. -1.
    9900012    2    1    2    0    0  0.22327612531E+02  0.18335519951E+02  0.28608631145E+02  0.50528839296E+02  0.29999937523E+02 0.  0.
         12    1    1    2    0    0 -0.22327612531E+02 -0.18335519951E+02 -0.28608631145E+02  0.40659160704E+02  0.00000000000E+00 0. -1.
         11    1    3    3    0    0  0.85152157458E+01  0.63465011636E+01  0.24051780541E+02  0.26292111435E+02  0.51100000000E-03 0. -1.
        -11    1    3    3    0    0  0.14317041964E+02  0.12917897810E+02 -0.28026993785E+00  0.19285443369E+02  0.51100000000E-03 0.  1.
        -12    1    3    3    0    0 -0.50464517866E+00 -0.92887902251E+00  0.48371205410E+01  0.49512844922E+01  0.00000000000E+00 0.  1.
</event>
<event>
 7    1  0.5972636E-013  0.5052886E+02  0.7816164E-02  0.1300439E+00
        -11   -1    0    0    0    0  0.00000000000E+00  0.00000000000E+00  0.45593999997E+02  0.45594000000E+02  0.51100000000E-03 0.  1.
         11   -1    0    0    0    0 -0.00000000000E+00 -0.00000000000E+00 -0.45593999997E+02  0.45594000000E+02  0.51100000000E-03 0. -1.
    9900012    2    1    2    0    0 -0.24910721569E+02  0.26249176875E+02  0.18536508748E+02  0.50528862131E+02  0.30000006933E+02 0.  0.
         12    1    1    2    0    0  0.24910721569E+02 -0.26249176875E+02 -0.18536508748E+02  0.40659137869E+02  0.00000000000E+00 0. -1.
         11    1    3    3    0    0  0.16742643866E+01 -0.18023212068E+01 -0.13565363596E+01  0.28092194867E+01  0.51100000000E-03 0. -1.
        -11    1    3    3    0    0 -0.17748822328E+02  0.29101452057E+02  0.13070774171E+02  0.36506990338E+02  0.51100000000E-03 0.  1.
        -12    1    3    3    0    0 -0.88361636277E+01 -0.10499539755E+01  0.68222709364E+01  0.11212652306E+02  0.00000000000E+00 0.  1.
</event>
<event>
 7    1  0.5972636E-013  0.5052886E+02  0.7816164E-02  0.1300439E+00
        -11   -1    0    0    0    0  0.00000000000E+00  0.00000000000E+00  0.45593999997E+02  0.45594000000E+02  0.51100000000E-03 0.  1.
         11   -1    0    0    0    0 -0.00000000000E+00 -0.00000000000E+00 -0.45593999997E+02  0.45594000000E+02  0.51100000000E-03 0. -1.
    9900012    2    1    2    0    0  0.87023752812E+01  0.35250185194E+02  0.18299155428E+02  0.50528856119E+02  0.29999988660E+02 0.  0.
         12    1    1    2    0    0 -0.87023752812E+01 -0.35250185194E+02 -0.18299155428E+02  0.40659143881E+02  0.00000000000E+00 0. -1.
         11    1    3    3    0    0 -0.45682243849E+01 -0.17087725001E+01 -0.89067070360E+00  0.49580108966E+01  0.51100000000E-03 0. -1.
        -11    1    3    3    0    0  0.62122293270E+01  0.30544443161E+02  0.11174058200E+02  0.33112148498E+02  0.51100000000E-03 0.  1.
        -12    1    3    3    0    0  0.70583703391E+01  0.64145145331E+01  0.80157679315E+01  0.12458696724E+02  0.00000000000E+00 0.  1.
</event>
<event>
 7    1  0.5972636E-013  0.5052882E+02  0.7816164E-02  0.1300439E+00
        -11   -1    0    0    0    0  0.00000000000E+00  0.00000000000E+00  0.45593999997E+02  0.45594000000E+02  0.51100000000E-03 0.  1.
         11   -1    0    0    0    0 -0.00000000000E+00 -0.00000000000E+00 -0.45593999997E+02  0.45594000000E+02  0.51100000000E-03 0. -1.
    9900012    2    1    2    0    0 -0.22206731842E+02 -0.19131053671E+02  0.28178582601E+02  0.50528823040E+02  0.29999888112E+02 0.  0.
         12    1    1    2    0    0  0.22206731842E+02  0.19131053671E+02 -0.28178582601E+02  0.40659176960E+02  0.00000000000E+00 0. -1.
         11    1    3    3    0    0 -0.12004067405E+02  0.34148028637E+01  0.84714108185E+01  0.15083875973E+02  0.51100000000E-03 0. -1.
        -11    1    3    3    0    0  0.42697889779E+01 -0.49107525461E+01  0.29856989239E+01  0.71596778426E+01  0.51100000000E-03 0.  1.
         12    1    3    3    0    0 -0.14472453416E+02 -0.17635103988E+02  0.16721472858E+02  0.28285269224E+02  0.00000000000E+00 0. -1.
</event>
<event>
 7    1  0.5972636E-013  0.5052885E+02  0.7816164E-02  0.1300439E+00
        -11   -1    0    0    0    0  0.00000000000E+00  0.00000000000E+00  0.45593999997E+02  0.45594000000E+02  0.51100000000E-03 0.  1.
         11   -1    0    0    0    0 -0.00000000000E+00 -0.00000000000E+00 -0.45593999997E+02  0.45594000000E+02  0.51100000000E-03 0. -1.
    9900012    2    1    2    0    0  0.36072859479E+02 -0.10188625195E+02  0.15751412220E+02  0.50528852674E+02  0.29999978187E+02 0.  0.
         12    1    1    2    0    0 -0.36072859479E+02  0.10188625195E+02 -0.15751412220E+02  0.40659147326E+02  0.00000000000E+00 0. -1.
         11    1    3    3    0    0  0.18002219086E+02 -0.66845034952E+01 -0.71509328571E+01  0.20491420643E+02  0.51100000000E-03 0.  1.
        -11    1    3    3    0    0  0.10261894172E+02 -0.70511407149E+00  0.16952428957E+02  0.19828981458E+02  0.51100000000E-03 0. -1.
        -12    1    3    3    0    0  0.78087462220E+01 -0.27990076279E+01  0.59499161203E+01  0.10208450573E+02  0.00000000000E+00 0.  1.
</event>
<event>
 7    1  0.5972636E-013  0.5052885E+02  0.7816164E-02  0.1300439E+00
        -11   -1    0    0    0    0  0.00000000000E+00  0.00000000000E+00  0.45593999997E+02  0.45594000000E+02  0.51100000000E-03 0. -1.
         11   -1    0    0    0    0 -0.00000000000E+00 -0.00000000000E+00 -0.45593999997E+02  0.45594000000E+02  0.51100000000E-03 0.  1.
    9900012    2    1    2    0    0 -0.91757784552E+01  0.29421378103E+02 -0.26520822072E+02  0.50528850929E+02  0.29999972884E+02 0.  0.
         12    1    1    2    0    0  0.91757784552E+01 -0.29421378103E+02  0.26520822072E+02  0.40659149071E+02  0.00000000000E+00 0. -1.
         11    1    3    3    0    0 -0.54141372125E+01  0.87714466828E+01  0.78297104325E+00  0.10337514333E+02  0.51100000000E-03 0. -1.
        -11    1    3    3    0    0  0.82174312249E+01  0.10368220630E+02 -0.16073512755E+02  0.20817876633E+02  0.51100000000E-03 0.  1.
        -12    1    3    3    0    0 -0.11979072468E+02  0.10281710791E+02 -0.11230280361E+02  0.19373459964E+02  0.00000000000E+00 0.  1.
</event>
<event>
 7    1  0.5972636E-013  0.5052885E+02  0.7816164E-02  0.1300439E+00
        -11   -1    0    0    0    0  0.00000000000E+00  0.00000000000E+00  0.45593999997E+02  0.45594000000E+02  0.51100000000E-03 0.  1.
         11   -1    0    0    0    0 -0.00000000000E+00 -0.00000000000E+00 -0.45593999997E+02  0.45594000000E+02  0.51100000000E-03 0. -1.
    9900012    2    1    2    0    0 -0.21251159395E+02 -0.19274793896E+01  0.34609812793E+02  0.50528854731E+02  0.29999984440E+02 0.  0.
         12    1    1    2    0    0  0.21251159395E+02  0.19274793896E+01 -0.34609812793E+02  0.40659145269E+02  0.00000000000E+00 0. -1.
         11    1    3    3    0    0  0.14472780922E+01 -0.99189560781E+01  0.80888769889E+01  0.12880614689E+02  0.51100000000E-03 0. -1.
        -11    1    3    3    0    0 -0.23313386095E+02  0.65575930291E+01  0.26735261769E+02  0.36073400445E+02  0.51100000000E-03 0.  1.
         12    1    3    3    0    0  0.61494860779E+00  0.14338836593E+01 -0.21432596457E+00  0.15748395975E+01  0.00000000000E+00 0. -1.
</event>
<event>
 7    1  0.5972636E-013  0.5052886E+02  0.7816164E-02  0.1300439E+00
        -11   -1    0    0    0    0  0.00000000000E+00  0.00000000000E+00  0.45593999997E+02  0.45594000000E+02  0.51100000000E-03 0. -1.
         11   -1    0    0    0    0 -0.00000000000E+00 -0.00000000000E+00 -0.45593999997E+02  0.45594000000E+02  0.51100000000E-03 0.  1.
    9900012    2    1    2    0    0 -0.10469269220E+02  0.33346452605E+02 -0.20774360443E+02  0.50528861406E+02  0.30000004730E+02 0.  0.
         12    1    1    2    0    0  0.10469269220E+02 -0.33346452605E+02  0.20774360443E+02  0.40659138594E+02  0.00000000000E+00 0. -1.
         11    1    3    3    0    0  0.33624888111E+00  0.16247279860E+01  0.19963856628E+01  0.25958351862E+01  0.51100000000E-03 0. -1.
        -11    1    3    3    0    0 -0.88801007893E+01  0.22815602046E+02 -0.28185230469E+02  0.37333833230E+02  0.51100000000E-03 0.  1.
        -12    1    3    3    0    0 -0.19254173121E+01  0.89061225732E+01  0.54144843639E+01  0.10599192990E+02  0.00000000000E+00 0.  1.
</event>
<event>
 7    1  0.5972636E-013  0.5052886E+02  0.7816164E-02  0.1300439E+00
        -11   -1    0    0    0    0  0.00000000000E+00  0.00000000000E+00  0.45593999997E+02  0.45594000000E+02  0.51100000000E-03 0. -1.
         11   -1    0    0    0    0 -0.00000000000E+00 -0.00000000000E+00 -0.45593999997E+02  0.45594000000E+02  0.51100000000E-03 0.  1.
    9900012    2    1    2    0    0 -0.20785803671E+02 -0.55901277629E+01 -0.34494443649E+02  0.50528858281E+02  0.29999995232E+02 0.  0.
         12    1    1    2    0    0  0.20785803671E+02  0.55901277629E+01  0.34494443649E+02  0.40659141719E+02  0.00000000000E+00 0. -1.
         11    1    3    3    0    0 -0.88899562100E+01  0.61628960946E+01 -0.24765388378E+02  0.27024749240E+02  0.51100000000E-03 0.  1.
        -11    1    3    3    0    0 -0.14391840414E+02 -0.70329595885E+01 -0.66793642572E+01  0.17355157683E+02  0.51100000000E-03 0. -1.
         12    1    3    3    0    0  0.24959929533E+01 -0.47200642691E+01 -0.30496910136E+01  0.61489513582E+01  0.00000000000E+00 0. -1.
</event>
<event>
 7    1  0.5972636E-013  0.5052886E+02  0.7816164E-02  0.1300439E+00
        -11   -1    0    0    0    0  0.00000000000E+00  0.00000000000E+00  0.45593999997E+02  0.45594000000E+02  0.51100000000E-03 0.  1.
         11   -1    0    0    0    0 -0.00000000000E+00 -0.00000000000E+00 -0.45593999997E+02  0.45594000000E+02  0.51100000000E-03 0. -1.
    9900012    2    1    2    0    0  0.12441982662E+02  0.12094380391E+02  0.36770756442E+02  0.50528862049E+02  0.30000006685E+02 0.  0.
         12    1    1    2    0    0 -0.12441982662E+02 -0.12094380391E+02 -0.36770756442E+02  0.40659137951E+02  0.00000000000E+00 0. -1.
         11    1    3    3    0    0  0.53078844174E+01 -0.37247385559E+01  0.50124496693E+01  0.81958505505E+01  0.51100000000E-03 0. -1.
        -11    1    3    3    0    0 -0.63780445948E+01  0.10209336414E+02  0.20880122036E+02  0.24101649307E+02  0.51100000000E-03 0.  1.
        -12    1    3    3    0    0  0.13512142839E+02  0.56097825331E+01  0.10878184737E+02  0.18231362191E+02  0.00000000000E+00 0.  1.
</event>
<event>
 7    1  0.5972636E-013  0.5052886E+02  0.7816164E-02  0.1300439E+00
        -11   -1    0    0    0    0  0.00000000000E+00  0.00000000000E+00  0.45593999997E+02  0.45594000000E+02  0.51100000000E-03 0.  1.
         11   -1    0    0    0    0 -0.00000000000E+00 -0.00000000000E+00 -0.45593999997E+02  0.45594000000E+02  0.51100000000E-03 0. -1.
    9900012    2    1    2    0    0  0.55919490903E+01 -0.27053991125E+02  0.29832483707E+02  0.50528863087E+02  0.30000009838E+02 0.  0.
         12    1    1    2    0    0 -0.55919490903E+01  0.27053991125E+02 -0.29832483707E+02  0.40659136913E+02  0.00000000000E+00 0. -1.
         11    1    3    3    0    0  0.14177759170E+02 -0.18090287792E+02  0.26118080112E+02  0.34791112033E+02  0.51100000000E-03 0. -1.
        -11    1    3    3    0    0 -0.80341906451E+01 -0.20040775947E+01  0.15131485318E+01  0.84174916137E+01  0.51100000000E-03 0.  1.
        -12    1    3    3    0    0 -0.55161943492E+00 -0.69596257376E+01  0.22012550631E+01  0.73202594395E+01  0.00000000000E+00 0.  1.
</event>
<event>
 7    1  0.5972636E-013  0.5052886E+02  0.7816164E-02  0.1300439E+00
        -11   -1    0    0    0    0  0.00000000000E+00  0.00000000000E+00  0.45593999997E+02  0.45594000000E+02  0.51100000000E-03 0. -1.
         11   -1    0    0    0    0 -0.00000000000E+00 -0.00000000000E+00 -0.45593999997E+02  0.45594000000E+02  0.51100000000E-03 0.  1.
    9900012    2    1    2    0    0  0.15736855860E+02  0.36180796816E+02 -0.98217679835E+01  0.50528858139E+02  0.29999994799E+02 0.  0.
         12    1    1    2    0    0 -0.15736855860E+02 -0.36180796816E+02  0.98217679835E+01  0.40659141861E+02  0.00000000000E+00 0. -1.
         11    1    3    3    0    0  0.62635951153E+01  0.21251908484E+02  0.10654834190E+01  0.22181332087E+02  0.51100000000E-03 0. -1.
        -11    1    3    3    0    0 -0.39610874734E+01 -0.20004866884E+01 -0.29271825743E+01  0.53160661251E+01  0.51100000000E-03 0.  1.
        -12    1    3    3    0    0  0.13434348218E+02  0.16929375020E+02 -0.79600688283E+01  0.23031459927E+02  0.00000000000E+00 0.  1.
</event>
<event>
 7    1  0.5972636E-013  0.5052894E+02  0.7816164E-02  0.1300439E+00
        -11   -1    0    0    0    0  0.00000000000E+00  0.00000000000E+00  0.45593999997E+02  0.45594000000E+02  0.51100000000E-03 0.  1.
         11   -1    0    0    0    0 -0.00000000000E+00 -0.00000000000E+00 -0.45593999997E+02  0.45594000000E+02  0.51100000000E-03 0. -1.
    9900012    2    1    2    0    0  0.34362448789E+02 -0.92569872084E+01  0.19664425665E+02  0.50528937841E+02  0.30000237060E+02 0.  0.
         12    1    1    2    0    0 -0.34362448789E+02  0.92569872084E+01 -0.19664425665E+02  0.40659062159E+02  0.00000000000E+00 0. -1.
         11    1    3    3    0    0  0.14082893055E+02 -0.15797723142E+02  0.54325170668E+01  0.21849672199E+02  0.51100000000E-03 0. -1.
        -11    1    3    3    0    0  0.14543505930E+01  0.51520227878E+01  0.61276092875E+01  0.81367112702E+01  0.51100000000E-03 0.  1.
        -12    1    3    3    0    0  0.18825205141E+02  0.13887131457E+01  0.81042993106E+01  0.20542554371E+02  0.00000000000E+00 0.  1.
</event>
<event>
 7    1  0.5972636E-013  0.5052889E+02  0.7816164E-02  0.1300439E+00
        -11   -1    0    0    0    0  0.00000000000E+00  0.00000000000E+00  0.45593999997E+02  0.45594000000E+02  0.51100000000E-03 0.  1.
         11   -1    0    0    0    0 -0.00000000000E+00 -0.00000000000E+00 -0.45593999997E+02  0.45594000000E+02  0.51100000000E-03 0. -1.
    9900012    2    1    2    0    0  0.51758356252E+01 -0.66892692978E+01  0.39769683735E+02  0.50528888567E+02  0.30000087288E+02 0.  0.
         12    1    1    2    0    0 -0.51758356252E+01  0.66892692978E+01 -0.39769683735E+02  0.40659111433E+02  0.00000000000E+00 0. -1.
         11    1    3    3    0    0  0.10473312799E+02  0.51619305489E+01  0.40004062975E+01  0.12342570996E+02  0.51100000000E-03 0. -1.
        -11    1    3    3    0    0 -0.40373712769E+01 -0.53862814540E+01  0.19757468390E+02  0.20872708310E+02  0.51100000000E-03 0.  1.
         12    1    3    3    0    0 -0.12601058970E+01 -0.64649183927E+01  0.16011809047E+02  0.17313609261E+02  0.00000000000E+00 0. -1.
</event>
<event>
 7    1  0.5972636E-013  0.5052886E+02  0.7816164E-02  0.1300439E+00
        -11   -1    0    0    0    0  0.00000000000E+00  0.00000000000E+00  0.45593999997E+02  0.45594000000E+02  0.51100000000E-03 0. -1.
         11   -1    0    0    0    0 -0.00000000000E+00 -0.00000000000E+00 -0.45593999997E+02  0.45594000000E+02  0.51100000000E-03 0.  1.
    9900012    2    1    2    0    0 -0.11172207209E+02  0.36323475205E+02 -0.14455199140E+02  0.50528857768E+02  0.29999993672E+02 0.  0.
         12    1    1    2    0    0  0.11172207209E+02 -0.36323475205E+02  0.14455199140E+02  0.40659142232E+02  0.00000000000E+00 0. -1.
         11    1    3    3    0    0 -0.15415248393E+02  0.20421336636E+02  0.17542130632E+01  0.25646405923E+02  0.51100000000E-03 0. -1.
        -11    1    3    3    0    0  0.75312925436E+00  0.72034793962E-01 -0.52753121058E+01  0.53292880162E+01  0.51100000000E-03 0.  1.
         12    1    3    3    0    0  0.34899119300E+01  0.15830103774E+02 -0.10934100097E+02  0.19553163829E+02  0.00000000000E+00 0. -1.
</event>
<event>
 7    1  0.5972636E-013  0.5052885E+02  0.7816164E-02  0.1300439E+00
        -11   -1    0    0    0    0  0.00000000000E+00  0.00000000000E+00  0.45593999997E+02  0.45594000000E+02  0.51100000000E-03 0.  1.
         11   -1    0    0    0    0 -0.00000000000E+00 -0.00000000000E+00 -0.45593999997E+02  0.45594000000E+02  0.51100000000E-03 0. -1.
    9900012    2    1    2    0    0  0.18392580720E+02  0.35614742666E+01  0.36085942342E+02  0.50528851469E+02  0.29999974526E+02 0.  0.
         12    1    1    2    0    0 -0.18392580720E+02 -0.35614742666E+01 -0.36085942342E+02  0.40659148531E+02  0.00000000000E+00 0. -1.
         11    1    3    3    0    0  0.10258265473E+02 -0.47601709154E+01  0.10455717174E+02  0.15401729109E+02  0.51100000000E-03 0. -1.
        -11    1    3    3    0    0  0.84740093948E+01  0.13136571749E+02  0.25944305297E+02  0.30290020306E+02  0.51100000000E-03 0.  1.
        -12    1    3    3    0    0 -0.33969414773E+00 -0.48149265667E+01 -0.31408012835E+00  0.48371020543E+01  0.00000000000E+00 0.  1.
</event>
<event>
 7    1  0.5972636E-013  0.5052887E+02  0.7816164E-02  0.1300439E+00
        -11   -1    0    0    0    0  0.00000000000E+00  0.00000000000E+00  0.45593999997E+02  0.45594000000E+02  0.51100000000E-03 0.  1.
         11   -1    0    0    0    0 -0.00000000000E+00 -0.00000000000E+00 -0.45593999997E+02  0.45594000000E+02  0.51100000000E-03 0. -1.
    9900012    2    1    2    0    0 -0.39614776585E+02  0.81178089100E+01  0.42350091831E+01  0.50528872511E+02  0.30000038485E+02 0.  0.
         12    1    1    2    0    0  0.39614776585E+02 -0.81178089100E+01 -0.42350091831E+01  0.40659127489E+02  0.00000000000E+00 0. -1.
         11    1    3    3    0    0  0.27373701322E+01 -0.16969123520E+01 -0.44486256502E+01  0.54920831391E+01  0.51100000000E-03 0. -1.
        -11    1    3    3    0    0 -0.18650572587E+02  0.76221171723E+00  0.18283237484E+01  0.18755468337E+02  0.51100000000E-03 0.  1.
         12    1    3    3    0    0 -0.23701574130E+02  0.90525095448E+01  0.68553110849E+01  0.26281321035E+02  0.00000000000E+00 0. -1.
</event>
<event>
 7    1  0.5972636E-013  0.5052886E+02  0.7816164E-02  0.1300439E+00
        -11   -1    0    0    0    0  0.00000000000E+00  0.00000000000E+00  0.45593999997E+02  0.45594000000E+02  0.51100000000E-03 0.  1.
         11   -1    0    0    0    0 -0.00000000000E+00 -0.00000000000E+00 -0.45593999997E+02  0.45594000000E+02  0.51100000000E-03 0. -1.
    9900012    2    1    2    0    0 -0.37209680870E+02  0.10858397898E+02  0.12276012766E+02  0.50528860256E+02  0.30000001233E+02 0.  0.
         12    1    1    2    0    0  0.37209680870E+02 -0.10858397898E+02 -0.12276012766E+02  0.40659139744E+02  0.00000000000E+00 0. -1.
         11    1    3    3    0    0 -0.41477758331E+01  0.55173492851E+01 -0.16065773411E+01  0.70870500569E+01  0.51100000000E-03 0. -1.
        -11    1    3    3    0    0 -0.14191981336E+02  0.25696890461E+01  0.18848515629E+02  0.23733566477E+02  0.51100000000E-03 0.  1.
        -12    1    3    3    0    0 -0.18869923701E+02  0.27713595665E+01 -0.49659255219E+01  0.19708243722E+02  0.00000000000E+00 0.  1.
</event>
<event>
 7    1  0.5972636E-013  0.5052886E+02  0.7816164E-02  0.1300439E+00
        -11   -1    0    0    0    0  0.00000000000E+00  0.00000000000E+00  0.45593999997E+02  0.45594000000E+02  0.51100000000E-03 0.  1.
         11   -1    0    0    0    0 -0.00000000000E+00 -0.00000000000E+00 -0.45593999997E+02  0.45594000000E+02  0.51100000000E-03 0. -1.
    9900012    2    1    2    0    0 -0.49288194397E+01 -0.34174360196E+02  0.21470578322E+02  0.50528857248E+02  0.29999992092E+02 0.  0.
         12    1    1    2    0    0  0.49288194397E+01  0.34174360196E+02 -0.21470578322E+02  0.40659142752E+02  0.00000000000E+00 0. -1.
         11    1    3    3    0    0  0.10807095069E+01 -0.20213573276E+01 -0.62798024617E+01  0.66850383471E+01  0.51100000000E-03 0. -1.
        -11    1    3    3    0    0 -0.45431492092E+00 -0.22115704222E+02  0.15194510326E+02  0.26836242650E+02  0.51100000000E-03 0.  1.
        -12    1    3    3    0    0 -0.55552140257E+01 -0.10037298646E+02  0.12555870457E+02  0.17007576251E+02  0.00000000000E+00 0.  1.
</event>
<event>
 7    1  0.5972636E-013  0.5052883E+02  0.7816164E-02  0.1300439E+00
        -11   -1    0    0    0    0  0.00000000000E+00  0.00000000000E+00  0.45593999997E+02  0.45594000000E+02  0.51100000000E-03 0. -1.
         11   -1    0    0    0    0 -0.00000000000E+00 -0.00000000000E+00 -0.45593999997E+02  0.45594000000E+02  0.51100000000E-03 0.  1.
    9900012    2    1    2    0    0  0.36283403119E+02 -0.26599265926E+01 -0.18155107925E+02  0.50528825203E+02  0.29999894688E+02 0.  0.
         12    1    1    2    0    0 -0.36283403119E+02  0.26599265926E+01  0.18155107925E+02  0.40659174797E+02  0.00000000000E+00 0. -1.
         11    1    3    3    0    0  0.57573223527E+01  0.85535406494E+01  0.19158429828E+01  0.10487147987E+02  0.51100000000E-03 0. -1.
        -11    1    3    3    0    0  0.15028073963E+02 -0.76162006635E+01 -0.37721646061E+01  0.17264957158E+02  0.51100000000E-03 0.  1.
         12    1    3    3    0    0  0.15498006804E+02 -0.35972665785E+01 -0.16298786302E+02  0.22776720059E+02  0.00000000000E+00 0. -1.
</event>
<event>
 7    1  0.5972636E-013  0.5052886E+02  0.7816164E-02  0.1300439E+00
        -11   -1    0    0    0    0  0.00000000000E+00  0.00000000000E+00  0.45593999997E+02  0.45594000000E+02  0.51100000000E-03 0.  1.
         11   -1    0    0    0    0 -0.00000000000E+00 -0.00000000000E+00 -0.45593999997E+02  0.45594000000E+02  0.51100000000E-03 0. -1.
    9900012    2    1    2    0    0  0.27511297232E+00 -0.39006945590E+02  0.11469456831E+02  0.50528856731E+02  0.29999990519E+02 0.  0.
         12    1    1    2    0    0 -0.27511297232E+00  0.39006945590E+02 -0.11469456831E+02  0.40659143269E+02  0.00000000000E+00 0. -1.
         11    1    3    3    0    0 -0.91903921145E+01 -0.20794010099E+02 -0.23274814171E+01  0.22853256513E+02  0.51100000000E-03 0. -1.
        -11    1    3    3    0    0  0.28362024203E+01 -0.12557345579E+02  0.13920455551E+02  0.18960750385E+02  0.51100000000E-03 0.  1.
        -12    1    3    3    0    0  0.66293026666E+01 -0.56555899115E+01 -0.12351730197E+00  0.87148498332E+01  0.00000000000E+00 0.  1.
</event>
<event>
 7    1  0.5972636E-013  0.5052879E+02  0.7816164E-02  0.1300439E+00
        -11   -1    0    0    0    0  0.00000000000E+00  0.00000000000E+00  0.45593999997E+02  0.45594000000E+02  0.51100000000E-03 0.  1.
         11   -1    0    0    0    0 -0.00000000000E+00 -0.00000000000E+00 -0.45593999997E+02  0.45594000000E+02  0.51100000000E-03 0. -1.
    9900012    2    1    2    0    0 -0.35557691421E+02 -0.19622647898E+02  0.19426360500E+01  0.50528787458E+02  0.29999779956E+02 0.  0.
         12    1    1    2    0    0  0.35557691421E+02  0.19622647898E+02 -0.19426360500E+01  0.40659212542E+02  0.00000000000E+00 0. -1.
         11    1    3    3    0    0 -0.28979898640E+02 -0.14680037992E+02 -0.76247787547E+01  0.33368777202E+02  0.51100000000E-03 0. -1.
        -11    1    3    3    0    0 -0.40410490132E+01  0.29121102988E+01  0.68509717212E+01  0.84703174265E+01  0.51100000000E-03 0.  1.
         12    1    3    3    0    0 -0.25367437682E+01 -0.78547202052E+01  0.27164430835E+01  0.86896928297E+01  0.00000000000E+00 0. -1.
</event>
<event>
 7    1  0.5972636E-013  0.5052886E+02  0.7816164E-02  0.1300439E+00
        -11   -1    0    0    0    0  0.00000000000E+00  0.00000000000E+00  0.45593999997E+02  0.45594000000E+02  0.51100000000E-03 0.  1.
         11   -1    0    0    0    0 -0.00000000000E+00 -0.00000000000E+00 -0.45593999997E+02  0.45594000000E+02  0.51100000000E-03 0. -1.
    9900012    2    1    2    0    0  0.55577398575E+01 -0.18464152602E+02  0.35795984103E+02  0.50528857344E+02  0.29999992382E+02 0.  0.
         12    1    1    2    0    0 -0.55577398575E+01  0.18464152602E+02 -0.35795984103E+02  0.40659142656E+02  0.00000000000E+00 0. -1.
         11    1    3    3    0    0  0.37197271584E+01  0.68603967146E+01  0.27191348805E+01  0.82640854288E+01  0.51100000000E-03 0. -1.
        -11    1    3    3    0    0  0.18366360087E+01 -0.25607109918E+02  0.33190013457E+02  0.41960389700E+02  0.51100000000E-03 0.  1.
        -12    1    3    3    0    0  0.13766904561E-02  0.28256060204E+00 -0.11316423409E+00  0.30438221528E+00  0.00000000000E+00 0.  1.
</event>
<event>
 7    1  0.5972636E-013  0.5052886E+02  0.7816164E-02  0.1300439E+00
        -11   -1    0    0    0    0  0.00000000000E+00  0.00000000000E+00  0.45593999997E+02  0.45594000000E+02  0.51100000000E-03 0.  1.
         11   -1    0    0    0    0 -0.00000000000E+00 -0.00000000000E+00 -0.45593999997E+02  0.45594000000E+02  0.51100000000E-03 0. -1.
    9900012    2    1    2    0    0  0.29172050070E+02 -0.13705111912E+02  0.24785621005E+02  0.50528860727E+02  0.30000002665E+02 0.  0.
         12    1    1    2    0    0 -0.29172050070E+02  0.13705111912E+02 -0.24785621005E+02  0.40659139273E+02  0.00000000000E+00 0. -1.
         11    1    3    3    0    0  0.89409652642E+01  0.59674840126E+01  0.12323882371E+02  0.16353281085E+02  0.51100000000E-03 0. -1.
        -11    1    3    3    0    0  0.18691696062E+02 -0.21281889219E+02  0.13872256618E+02  0.31539464395E+02  0.51100000000E-03 0.  1.
        -12    1    3    3    0    0  0.15393887444E+01  0.16092932947E+01 -0.14105179831E+01  0.26361152469E+01  0.00000000000E+00 0.  1.
</event>
<event>
 7    1  0.5972636E-013  0.5052885E+02  0.7816164E-02  0.1300439E+00
        -11   -1    0    0    0    0  0.00000000000E+00  0.00000000000E+00  0.45593999997E+02  0.45594000000E+02  0.51100000000E-03 0.  1.
         11   -1    0    0    0    0 -0.00000000000E+00 -0.00000000000E+00 -0.45593999997E+02  0.45594000000E+02  0.51100000000E-03 0. -1.
    9900012    2    1    2    0    0  0.12393477400E+02  0.10058504645E+02  0.37395115054E+02  0.50528850628E+02  0.29999971968E+02 0.  0.
         12    1    1    2    0    0 -0.12393477400E+02 -0.10058504645E+02 -0.37395115054E+02  0.40659149372E+02  0.00000000000E+00 0. -1.
         11    1    3    3    0    0 -0.22476070935E+01 -0.69641798423E+01  0.95958617400E+01  0.12067812615E+02  0.51100000000E-03 0. -1.
        -11    1    3    3    0    0  0.16791629419E+02  0.11649684435E+02  0.18845758287E+02  0.27799938339E+02  0.51100000000E-03 0.  1.
        -12    1    3    3    0    0 -0.21505449255E+01  0.53730000524E+01  0.89534950273E+01  0.10661099673E+02  0.00000000000E+00 0.  1.
</event>
<event>
 7    1  0.5972636E-013  0.5052886E+02  0.7816164E-02  0.1300439E+00
        -11   -1    0    0    0    0  0.00000000000E+00  0.00000000000E+00  0.45593999997E+02  0.45594000000E+02  0.51100000000E-03 0.  1.
         11   -1    0    0    0    0 -0.00000000000E+00 -0.00000000000E+00 -0.45593999997E+02  0.45594000000E+02  0.51100000000E-03 0. -1.
    9900012    2    1    2    0    0  0.17968474605E+02 -0.13840203890E+02  0.33745344014E+02  0.50528861224E+02  0.30000004177E+02 0.  0.
         12    1    1    2    0    0 -0.17968474605E+02  0.13840203890E+02 -0.33745344014E+02  0.40659138776E+02  0.00000000000E+00 0. -1.
         11    1    3    3    0    0  0.21282024362E+01 -0.96155153833E+01 -0.25870453834E+01  0.10182346771E+02  0.51100000000E-03 0. -1.
        -11    1    3    3    0    0  0.13148411665E+02 -0.51665841692E+01  0.33356489561E+02  0.36224711419E+02  0.51100000000E-03 0.  1.
         12    1    3    3    0    0  0.26918605043E+01  0.94189566222E+00  0.29758998363E+01  0.41218030337E+01  0.00000000000E+00 0. -1.
</event>
<event>
 7    1  0.5972636E-013  0.5052886E+02  0.7816164E-02  0.1300439E+00
        -11   -1    0    0    0    0  0.00000000000E+00  0.00000000000E+00  0.45593999997E+02  0.45594000000E+02  0.51100000000E-03 0.  1.
         11   -1    0    0    0    0 -0.00000000000E+00 -0.00000000000E+00 -0.45593999997E+02  0.45594000000E+02  0.51100000000E-03 0. -1.
    9900012    2    1    2    0    0 -0.15314401232E+02  0.15388644863E+02  0.34377668538E+02  0.50528863635E+02  0.30000011505E+02 0.  0.
         12    1    1    2    0    0  0.15314401232E+02 -0.15388644863E+02 -0.34377668538E+02  0.40659136365E+02  0.00000000000E+00 0. -1.
         11    1    3    3    0    0  0.51205845378E+00 -0.10853353382E+01 -0.42079291701E+01  0.43757084932E+01  0.51100000000E-03 0. -1.
        -11    1    3    3    0    0 -0.14270554966E+02  0.12860978042E+02  0.37398703069E+02  0.42044220610E+02  0.51100000000E-03 0.  1.
        -12    1    3    3    0    0 -0.15559047198E+01  0.36130021593E+01  0.11868946394E+01  0.41089345316E+01  0.00000000000E+00 0.  1.
</event>
<event>
 7    1  0.5972636E-013  0.5052887E+02  0.7816164E-02  0.1300439E+00
        -11   -1    0    0    0    0  0.00000000000E+00  0.00000000000E+00  0.45593999997E+02  0.45594000000E+02  0.51100000000E-03 0.  1.
         11   -1    0    0    0    0 -0.00000000000E+00 -0.00000000000E+00 -0.45593999997E+02  0.45594000000E+02  0.51100000000E-03 0. -1.
    9900012    2    1    2    0    0  0.28443341100E+02 -0.20495213407E+02  0.20593384813E+02  0.50528869124E+02  0.30000028190E+02 0.  0.
         12    1    1    2    0    0 -0.28443341100E+02  0.20495213407E+02 -0.20593384813E+02  0.40659130876E+02  0.00000000000E+00 0. -1.
         11    1    3    3    0    0  0.26898219325E+01 -0.88233883285E+01 -0.38872535727E+01  0.10009898312E+02  0.51100000000E-03 0. -1.
        -11    1    3    3    0    0  0.23208252922E+02 -0.33066079023E+01  0.16369232898E+02  0.28592104599E+02  0.51100000000E-03 0.  1.
         12    1    3    3    0    0  0.25452662456E+01 -0.83652171764E+01  0.81114054880E+01  0.11926866213E+02  0.00000000000E+00 0. -1.
</event>
<event>
 7    1  0.5972636E-013  0.5052885E+02  0.7816164E-02  0.1300439E+00
        -11   -1    0    0    0    0  0.00000000000E+00  0.00000000000E+00  0.45593999997E+02  0.45594000000E+02  0.51100000000E-03 0.  1.
         11   -1    0    0    0    0 -0.00000000000E+00 -0.00000000000E+00 -0.45593999997E+02  0.45594000000E+02  0.51100000000E-03 0. -1.
    9900012    2    1    2    0    0  0.17613190484E+02 -0.29713359494E+02  0.21448970992E+02  0.50528848902E+02  0.29999966721E+02 0.  0.
         12    1    1    2    0    0 -0.17613190484E+02  0.29713359494E+02 -0.21448970992E+02  0.40659151098E+02  0.00000000000E+00 0. -1.
         11    1    3    3    0    0 -0.63567683137E+01 -0.33348594392E+01 -0.13375830913E+01  0.73019805300E+01  0.51100000000E-03 0. -1.
        -11    1    3    3    0    0  0.72082340581E+01 -0.14424874428E+02  0.92989354798E+01  0.18614667384E+02  0.51100000000E-03 0.  1.
         12    1    3    3    0    0  0.16761724740E+02 -0.11953625627E+02  0.13487618603E+02  0.24612200988E+02  0.00000000000E+00 0. -1.
</event>
<event>
 7    1  0.5972636E-013  0.5052885E+02  0.7816164E-02  0.1300439E+00
        -11   -1    0    0    0    0  0.00000000000E+00  0.00000000000E+00  0.45593999997E+02  0.45594000000E+02  0.51100000000E-03 0.  1.
         11   -1    0    0    0    0 -0.00000000000E+00 -0.00000000000E+00 -0.45593999997E+02  0.45594000000E+02  0.51100000000E-03 0. -1.
    9900012    2    1    2    0    0  0.30081667572E+02 -0.22268594634E+02 -0.15886137461E+02  0.50528851038E+02  0.29999973216E+02 0.  0.
         12    1    1    2    0    0 -0.30081667572E+02  0.22268594634E+02  0.15886137461E+02  0.40659148962E+02  0.00000000000E+00 0. -1.
         11    1    3    3    0    0  0.84788824724E+01 -0.15670139757E+02 -0.16886000634E+02  0.24547540521E+02  0.51100000000E-03 0. -1.
        -11    1    3    3    0    0  0.20688130951E+02 -0.31910967542E+01 -0.24146071894E+01  0.21071596733E+02  0.51100000000E-03 0.  1.
        -12    1    3    3    0    0  0.91465414849E+00 -0.34073581232E+01  0.34144703623E+01  0.49097137845E+01  0.00000000000E+00 0.  1.
</event>
<event>
 7    1  0.5972636E-013  0.5052886E+02  0.7816164E-02  0.1300439E+00
        -11   -1    0    0    0    0  0.00000000000E+00  0.00000000000E+00  0.45593999997E+02  0.45594000000E+02  0.51100000000E-03 0. -1.
         11   -1    0    0    0    0 -0.00000000000E+00 -0.00000000000E+00 -0.45593999997E+02  0.45594000000E+02  0.51100000000E-03 0.  1.
    9900012    2    1    2    0    0 -0.34195355279E+02 -0.20921274943E+02 -0.67929018684E+01  0.50528861006E+02  0.30000003514E+02 0.  0.
         12    1    1    2    0    0  0.34195355279E+02  0.20921274943E+02  0.67929018684E+01  0.40659138994E+02  0.00000000000E+00 0. -1.
         11    1    3    3    0    0 -0.31577525496E+02 -0.17192270839E+02 -0.12608036588E+02  0.38100877679E+02  0.51100000000E-03 0.  1.
        -11    1    3    3    0    0 -0.26956681209E+01  0.26649341754E+01  0.45282145205E+01  0.59053558557E+01  0.51100000000E-03 0. -1.
        -12    1    3    3    0    0  0.77838337404E-01 -0.63939382798E+01  0.12869201989E+01  0.65226274714E+01  0.00000000000E+00 0.  1.
</event>
<event>
 7    1  0.5972636E-013  0.5052886E+02  0.7816164E-02  0.1300439E+00
        -11   -1    0    0    0    0  0.00000000000E+00  0.00000000000E+00  0.45593999997E+02  0.45594000000E+02  0.51100000000E-03 0.  1.
         11   -1    0    0    0    0 -0.00000000000E+00 -0.00000000000E+00 -0.45593999997E+02  0.45594000000E+02  0.51100000000E-03 0. -1.
    9900012    2    1    2    0    0 -0.18881789089E+02  0.32976003393E+01  0.35857629398E+02  0.50528859414E+02  0.29999998673E+02 0.  0.
         12    1    1    2    0    0  0.18881789089E+02 -0.32976003393E+01 -0.35857629398E+02  0.40659140586E+02  0.00000000000E+00 0. -1.
         11    1    3    3    0    0  0.25653311789E+01 -0.74561810137E+00 -0.23885892724E+01  0.35836056401E+01  0.51100000000E-03 0. -1.
        -11    1    3    3    0    0 -0.18018209996E+02 -0.34748299273E+01  0.30638090742E+02  0.35713063983E+02  0.51100000000E-03 0.  1.
        -12    1    3    3    0    0 -0.34289102713E+01  0.75180483680E+01  0.76081279286E+01  0.11232189791E+02  0.00000000000E+00 0.  1.
</event>
<event>
 7    1  0.5972636E-013  0.5052887E+02  0.7816164E-02  0.1300439E+00
        -11   -1    0    0    0    0  0.00000000000E+00  0.00000000000E+00  0.45593999997E+02  0.45594000000E+02  0.51100000000E-03 0.  1.
         11   -1    0    0    0    0 -0.00000000000E+00 -0.00000000000E+00 -0.45593999997E+02  0.45594000000E+02  0.51100000000E-03 0. -1.
    9900012    2    1    2    0    0 -0.72460755972E+01 -0.15643581570E+02  0.36823054028E+02  0.50528873548E+02  0.30000041635E+02 0.  0.
         12    1    1    2    0    0  0.72460755972E+01  0.15643581570E+02 -0.36823054028E+02  0.40659126452E+02  0.00000000000E+00 0. -1.
         11    1    3    3    0    0 -0.57110683662E+01  0.68821510600E+01  0.83550412487E+01  0.12238750738E+02  0.51100000000E-03 0. -1.
        -11    1    3    3    0    0 -0.49193351432E+01 -0.11338290480E+02  0.80082787297E+01  0.14727159187E+02  0.51100000000E-03 0.  1.
         12    1    3    3    0    0  0.33843279122E+01 -0.11187442150E+02  0.20459734050E+02  0.23562963622E+02  0.00000000000E+00 0. -1.
</event>
<event>
 7    1  0.5972636E-013  0.5052881E+02  0.7816164E-02  0.1300439E+00
        -11   -1    0    0    0    0  0.00000000000E+00  0.00000000000E+00  0.45593999997E+02  0.45594000000E+02  0.51100000000E-03 0.  1.
         11   -1    0    0    0    0 -0.00000000000E+00 -0.00000000000E+00 -0.45593999997E+02  0.45594000000E+02  0.51100000000E-03 0. -1.
    9900012    2    1    2    0    0  0.13337526826E+02  0.43940266683E+01  0.38157212514E+02  0.50528807201E+02  0.29999839969E+02 0.  0.
         12    1    1    2    0    0 -0.13337526826E+02 -0.43940266683E+01 -0.38157212514E+02  0.40659192799E+02  0.00000000000E+00 0. -1.
         11    1    3    3    0    0  0.92633728830E+00  0.22687025238E+01 -0.41994635618E+01  0.48621606700E+01  0.51100000000E-03 0. -1.
        -11    1    3    3    0    0  0.94264538168E+01 -0.27144995861E+00  0.12993424239E+02  0.16054930406E+02  0.51100000000E-03 0.  1.
         12    1    3    3    0    0  0.29847357212E+01  0.23967741031E+01  0.29363251837E+02  0.29611716125E+02  0.00000000000E+00 0. -1.
</event>
<event>
 7    1  0.5972636E-013  0.5052885E+02  0.7816164E-02  0.1300439E+00
        -11   -1    0    0    0    0  0.00000000000E+00  0.00000000000E+00  0.45593999997E+02  0.45594000000E+02  0.51100000000E-03 0.  1.
         11   -1    0    0    0    0 -0.00000000000E+00 -0.00000000000E+00 -0.45593999997E+02  0.45594000000E+02  0.51100000000E-03 0. -1.
    9900012    2    1    2    0    0  0.40513409292E+02  0.32117441566E+01 -0.12309110227E+01  0.50528846357E+02  0.29999958987E+02 0.  0.
         12    1    1    2    0    0 -0.40513409292E+02 -0.32117441566E+01  0.12309110227E+01  0.40659153643E+02  0.00000000000E+00 0. -1.
         11    1    3    3    0    0 -0.40516971654E+01 -0.13863734006E+01  0.30059141134E+01  0.52319978063E+01  0.51100000000E-03 0. -1.
        -11    1    3    3    0    0  0.12537125807E+02  0.12827378201E+01  0.11315629031E+01  0.12653275255E+02  0.51100000000E-03 0.  1.
         12    1    3    3    0    0  0.32027980651E+02  0.33153797372E+01 -0.53683880393E+01  0.32643573296E+02  0.00000000000E+00 0. -1.
</event>
<event>
 7    1  0.5972636E-013  0.5052885E+02  0.7816164E-02  0.1300439E+00
        -11   -1    0    0    0    0  0.00000000000E+00  0.00000000000E+00  0.45593999997E+02  0.45594000000E+02  0.51100000000E-03 0.  1.
         11   -1    0    0    0    0 -0.00000000000E+00 -0.00000000000E+00 -0.45593999997E+02  0.45594000000E+02  0.51100000000E-03 0. -1.
    9900012    2    1    2    0    0 -0.22098918648E+02 -0.20208080011E+02  0.27503407899E+02  0.50528854052E+02  0.29999982377E+02 0.  0.
         12    1    1    2    0    0  0.22098918648E+02  0.20208080011E+02 -0.27503407899E+02  0.40659145948E+02  0.00000000000E+00 0. -1.
         11    1    3    3    0    0 -0.20733506339E+01 -0.93076113093E+01  0.11719509198E+01  0.96074908460E+01  0.51100000000E-03 0. -1.
        -11    1    3    3    0    0 -0.20068277978E+01  0.23678528936E+01  0.15957859590E+02  0.16256917546E+02  0.51100000000E-03 0.  1.
        -12    1    3    3    0    0 -0.18018740216E+02 -0.13268321595E+02  0.10373597389E+02  0.24664445660E+02  0.00000000000E+00 0.  1.
</event>
<event>
 7    1  0.5972636E-013  0.5052887E+02  0.7816164E-02  0.1300439E+00
        -11   -1    0    0    0    0  0.00000000000E+00  0.00000000000E+00  0.45593999997E+02  0.45594000000E+02  0.51100000000E-03 0.  1.
         11   -1    0    0    0    0 -0.00000000000E+00 -0.00000000000E+00 -0.45593999997E+02  0.45594000000E+02  0.51100000000E-03 0. -1.
    9900012    2    1    2    0    0  0.29636794260E+00 -0.32597622935E+01  0.40527161557E+02  0.50528871775E+02  0.30000036247E+02 0.  0.
         12    1    1    2    0    0 -0.29636794260E+00  0.32597622935E+01 -0.40527161557E+02  0.40659128225E+02  0.00000000000E+00 0. -1.
         11    1    3    3    0    0  0.14884869070E+01 -0.11224448654E+01  0.18060737985E+01  0.25956460804E+01  0.51100000000E-03 0. -1.
        -11    1    3    3    0    0  0.58677535237E+01 -0.11257953907E+02  0.32360912916E+02  0.34762058952E+02  0.51100000000E-03 0.  1.
        -12    1    3    3    0    0 -0.70598724882E+01  0.91206364785E+01  0.63601748421E+01  0.13171166742E+02  0.00000000000E+00 0.  1.
</event>
<event>
 7    1  0.5972636E-013  0.5052887E+02  0.7816164E-02  0.1300439E+00
        -11   -1    0    0    0    0  0.00000000000E+00  0.00000000000E+00  0.45593999997E+02  0.45594000000E+02  0.51100000000E-03 0. -1.
         11   -1    0    0    0    0 -0.00000000000E+00 -0.00000000000E+00 -0.45593999997E+02  0.45594000000E+02  0.51100000000E-03 0.  1.
    9900012    2    1    2    0    0  0.25728182944E+01 -0.26796309385E+02 -0.30471355962E+02  0.50528866650E+02  0.30000020669E+02 0.  0.
         12    1    1    2    0    0 -0.25728182944E+01  0.26796309385E+02  0.30471355962E+02  0.40659133350E+02  0.00000000000E+00 0. -1.
         11    1    3    3    0    0  0.25134087383E+00 -0.19681119892E+02 -0.45974235315E+01  0.20212519779E+02  0.51100000000E-03 0. -1.
        -11    1    3    3    0    0  0.70553674124E+01 -0.74691130411E+01 -0.21640663325E+02  0.23955879620E+02  0.51100000000E-03 0.  1.
         12    1    3    3    0    0 -0.47338899918E+01  0.35392354812E+00 -0.42332691055E+01  0.63604672511E+01  0.00000000000E+00 0. -1.
</event>
<event>
 7    1  0.5972636E-013  0.5052886E+02  0.7816164E-02  0.1300439E+00
        -11   -1    0    0    0    0  0.00000000000E+00  0.00000000000E+00  0.45593999997E+02  0.45594000000E+02  0.51100000000E-03 0.  1.
         11   -1    0    0    0    0 -0.00000000000E+00 -0.00000000000E+00 -0.45593999997E+02  0.45594000000E+02  0.51100000000E-03 0. -1.
    9900012    2    1    2    0    0 -0.34253525684E+02 -0.13622984569E+02  0.17154476697E+02  0.50528858333E+02  0.29999995390E+02 0.  0.
         12    1    1    2    0    0  0.34253525684E+02  0.13622984569E+02 -0.17154476697E+02  0.40659141667E+02  0.00000000000E+00 0. -1.
         11    1    3    3    0    0 -0.18290068218E+02 -0.10483353008E+02 -0.33304986486E+01  0.21342902971E+02  0.51100000000E-03 0. -1.
        -11    1    3    3    0    0 -0.77981270176E+01  0.38234174565E+01  0.41109957024E+01  0.96088288546E+01  0.51100000000E-03 0.  1.
         12    1    3    3    0    0 -0.81653304484E+01 -0.69630490170E+01  0.16373979644E+02  0.19577126508E+02  0.00000000000E+00 0. -1.
</event>
<event>
 7    1  0.5972636E-013  0.5052896E+02  0.7816164E-02  0.1300438E+00
        -11   -1    0    0    0    0  0.00000000000E+00  0.00000000000E+00  0.45593999997E+02  0.45594000000E+02  0.51100000000E-03 0.  1.
         11   -1    0    0    0    0 -0.00000000000E+00 -0.00000000000E+00 -0.45593999997E+02  0.45594000000E+02  0.51100000000E-03 0. -1.
    9900012    2    1    2    0    0  0.16536204544E+02 -0.29455704273E+02  0.22629026061E+02  0.50528961701E+02  0.30000309584E+02 0.  0.
         12    1    1    2    0    0 -0.16536204544E+02  0.29455704273E+02 -0.22629026061E+02  0.40659038299E+02  0.00000000000E+00 0. -1.
         11    1    3    3    0    0 -0.37430708588E+01 -0.11984869781E+02  0.27774721149E+01  0.12859317040E+02  0.51100000000E-03 0. -1.
        -11    1    3    3    0    0  0.18278177034E+02 -0.20445919747E+02  0.13961679312E+02  0.30774273013E+02  0.51100000000E-03 0.  1.
         12    1    3    3    0    0  0.20010983683E+01  0.29750852553E+01  0.58898746343E+01  0.68953716480E+01  0.00000000000E+00 0. -1.
</event>
<event>
 7    1  0.5972636E-013  0.5052882E+02  0.7816164E-02  0.1300439E+00
        -11   -1    0    0    0    0  0.00000000000E+00  0.00000000000E+00  0.45593999997E+02  0.45594000000E+02  0.51100000000E-03 0.  1.
         11   -1    0    0    0    0 -0.00000000000E+00 -0.00000000000E+00 -0.45593999997E+02  0.45594000000E+02  0.51100000000E-03 0. -1.
    9900012    2    1    2    0    0 -0.15176887429E+02  0.37546884023E+02  0.36141722730E+01  0.50528823261E+02  0.29999888784E+02 0.  0.
         12    1    1    2    0    0  0.15176887429E+02 -0.37546884023E+02 -0.36141722730E+01  0.40659176739E+02  0.00000000000E+00 0. -1.
         11    1    3    3    0    0 -0.95374384808E+01  0.54372774537E+01 -0.67930176405E+01  0.12910143601E+02  0.51100000000E-03 0. -1.
        -11    1    3    3    0    0 -0.52916176629E+01  0.35488795131E+01 -0.17021729640E+01  0.65949341429E+01  0.51100000000E-03 0.  1.
         12    1    3    3    0    0 -0.34783128549E+00  0.28560727056E+02  0.12109362878E+02  0.31023745517E+02  0.00000000000E+00 0. -1.
</event>
<event>
 7    1  0.5972636E-013  0.5052886E+02  0.7816164E-02  0.1300439E+00
        -11   -1    0    0    0    0  0.00000000000E+00  0.00000000000E+00  0.45593999997E+02  0.45594000000E+02  0.51100000000E-03 0.  1.
         11   -1    0    0    0    0 -0.00000000000E+00 -0.00000000000E+00 -0.45593999997E+02  0.45594000000E+02  0.51100000000E-03 0. -1.
    9900012    2    1    2    0    0 -0.16064483175E+02 -0.18887051980E+02  0.32223860364E+02  0.50528861680E+02  0.30000005561E+02 0.  0.
         12    1    1    2    0    0  0.16064483175E+02  0.18887051980E+02 -0.32223860364E+02  0.40659138320E+02  0.00000000000E+00 0. -1.
         11    1    3    3    0    0 -0.75644937636E+01 -0.19906174572E+02  0.31142834330E+02  0.37727357214E+02  0.51100000000E-03 0. -1.
        -11    1    3    3    0    0 -0.85186086321E+01  0.21296169835E+01  0.40217959613E+01  0.96579917446E+01  0.51100000000E-03 0.  1.
         12    1    3    3    0    0  0.18619220725E-01 -0.11104943918E+01 -0.29407699265E+01  0.31435127215E+01  0.00000000000E+00 0. -1.
</event>
<event>
 7    1  0.5972636E-013  0.5052886E+02  0.7816164E-02  0.1300439E+00
        -11   -1    0    0    0    0  0.00000000000E+00  0.00000000000E+00  0.45593999997E+02  0.45594000000E+02  0.51100000000E-03 0.  1.
         11   -1    0    0    0    0 -0.00000000000E+00 -0.00000000000E+00 -0.45593999997E+02  0.45594000000E+02  0.51100000000E-03 0. -1.
    9900012    2    1    2    0    0  0.34492032397E+02  0.10981878003E+02 -0.18516586094E+02  0.50528857069E+02  0.29999991546E+02 0.  0.
         12    1    1    2    0    0 -0.34492032397E+02 -0.10981878003E+02  0.18516586094E+02  0.40659142931E+02  0.00000000000E+00 0. -1.
         11    1    3    3    0    0  0.56649392427E+01  0.19847852683E+01 -0.14550906014E+02  0.15740386757E+02  0.51100000000E-03 0. -1.
        -11    1    3    3    0    0  0.46129889044E+01 -0.30708879063E+01  0.37064745088E+01  0.66669312813E+01  0.51100000000E-03 0.  1.
        -12    1    3    3    0    0  0.24214104250E+02  0.12067980641E+02 -0.76721545888E+01  0.28121539030E+02  0.00000000000E+00 0.  1.
</event>
<event>
 7    1  0.5972636E-013  0.5052886E+02  0.7816164E-02  0.1300439E+00
        -11   -1    0    0    0    0  0.00000000000E+00  0.00000000000E+00  0.45593999997E+02  0.45594000000E+02  0.51100000000E-03 0. -1.
         11   -1    0    0    0    0 -0.00000000000E+00 -0.00000000000E+00 -0.45593999997E+02  0.45594000000E+02  0.51100000000E-03 0.  1.
    9900012    2    1    2    0    0 -0.26020397523E+02  0.27139112465E+02 -0.15478154121E+02  0.50528858744E+02  0.29999996639E+02 0.  0.
         12    1    1    2    0    0  0.26020397523E+02 -0.27139112465E+02  0.15478154121E+02  0.40659141256E+02  0.00000000000E+00 0. -1.
         11    1    3    3    0    0 -0.51232315921E+01  0.15211299870E+00 -0.93146066720E+01  0.10631676163E+02  0.51100000000E-03 0. -1.
        -11    1    3    3    0    0 -0.22934588280E+02  0.16519137233E+02 -0.16363980291E+01  0.28311747266E+02  0.51100000000E-03 0.  1.
        -12    1    3    3    0    0  0.20374223494E+01  0.10467862234E+02 -0.45271494199E+01  0.11585435315E+02  0.00000000000E+00 0.  1.
</event>
<event>
 7    1  0.5972636E-013  0.5052885E+02  0.7816164E-02  0.1300439E+00
        -11   -1    0    0    0    0  0.00000000000E+00  0.00000000000E+00  0.45593999997E+02  0.45594000000E+02  0.51100000000E-03 0.  1.
         11   -1    0    0    0    0 -0.00000000000E+00 -0.00000000000E+00 -0.45593999997E+02  0.45594000000E+02  0.51100000000E-03 0. -1.
    9900012    2    1    2    0    0  0.14054416482E+02 -0.13996358704E+02  0.35492836588E+02  0.50528854305E+02  0.29999983145E+02 0.  0.
         12    1    1    2    0    0 -0.14054416482E+02  0.13996358704E+02 -0.35492836588E+02  0.40659145695E+02  0.00000000000E+00 0. -1.
         11    1    3    3    0    0  0.56353332615E+01 -0.99521281811E+01 -0.11672608651E+01  0.11496274809E+02  0.51100000000E-03 0. -1.
        -11    1    3    3    0    0 -0.81987456178E+00  0.21306680794E+01  0.58461765898E+01  0.62761231458E+01  0.51100000000E-03 0.  1.
         12    1    3    3    0    0  0.92389577818E+01 -0.61748986022E+01  0.30813920863E+02  0.32756456350E+02  0.00000000000E+00 0. -1.
</event>
<event>
 7    1  0.5972636E-013  0.5052887E+02  0.7816164E-02  0.1300439E+00
        -11   -1    0    0    0    0  0.00000000000E+00  0.00000000000E+00  0.45593999997E+02  0.45594000000E+02  0.51100000000E-03 0.  1.
         11   -1    0    0    0    0 -0.00000000000E+00 -0.00000000000E+00 -0.45593999997E+02  0.45594000000E+02  0.51100000000E-03 0. -1.
    9900012    2    1    2    0    0 -0.11035395613E+02 -0.28175721768E+02  0.27157206337E+02  0.50528866838E+02  0.30000021240E+02 0.  0.
         12    1    1    2    0    0  0.11035395613E+02  0.28175721768E+02 -0.27157206337E+02  0.40659133162E+02  0.00000000000E+00 0. -1.
         11    1    3    3    0    0  0.64714913076E+00 -0.18224088242E+02  0.50059443062E+01  0.18910200235E+02  0.51100000000E-03 0. -1.
        -11    1    3    3    0    0 -0.12785652631E+02 -0.33546898979E+01  0.21026416925E+02  0.24836204752E+02  0.51100000000E-03 0.  1.
        -12    1    3    3    0    0  0.11031078879E+01 -0.65969436281E+01  0.11248451055E+01  0.67824618507E+01  0.00000000000E+00 0.  1.
</event>
<event>
 7    1  0.5972636E-013  0.5052886E+02  0.7816164E-02  0.1300439E+00
        -11   -1    0    0    0    0  0.00000000000E+00  0.00000000000E+00  0.45593999997E+02  0.45594000000E+02  0.51100000000E-03 0.  1.
         11   -1    0    0    0    0 -0.00000000000E+00 -0.00000000000E+00 -0.45593999997E+02  0.45594000000E+02  0.51100000000E-03 0. -1.
    9900012    2    1    2    0    0 -0.22353548396E+02  0.63939645846E+01  0.33355691484E+02  0.50528855108E+02  0.29999985587E+02 0.  0.
         12    1    1    2    0    0  0.22353548396E+02 -0.63939645846E+01 -0.33355691484E+02  0.40659144892E+02  0.00000000000E+00 0. -1.
         11    1    3    3    0    0 -0.11795243458E+02 -0.97525175389E+01  0.11813721434E+02  0.19333995473E+02  0.51100000000E-03 0. -1.
        -11    1    3    3    0    0 -0.18900406385E+01  0.10382182730E+02  0.50660655056E+01  0.11705852888E+02  0.51100000000E-03 0.  1.
        -12    1    3    3    0    0 -0.86682642995E+01  0.57642993931E+01  0.16475904544E+02  0.19489006747E+02  0.00000000000E+00 0.  1.
</event>
<event>
 7    1  0.5972636E-013  0.5052886E+02  0.7816164E-02  0.1300439E+00
        -11   -1    0    0    0    0  0.00000000000E+00  0.00000000000E+00  0.45593999997E+02  0.45594000000E+02  0.51100000000E-03 0.  1.
         11   -1    0    0    0    0 -0.00000000000E+00 -0.00000000000E+00 -0.45593999997E+02  0.45594000000E+02  0.51100000000E-03 0. -1.
    9900012    2    1    2    0    0  0.26342958905E+02 -0.28344439901E+02  0.12482260426E+02  0.50528861021E+02  0.30000003559E+02 0.  0.
         12    1    1    2    0    0 -0.26342958905E+02  0.28344439901E+02 -0.12482260426E+02  0.40659138979E+02  0.00000000000E+00 0. -1.
         11    1    3    3    0    0  0.20871142881E+01  0.30070137861E+01  0.37573174115E+01  0.52455326091E+01  0.51100000000E-03 0. -1.
        -11    1    3    3    0    0  0.16932081868E+02 -0.32374124749E+02  0.97614920128E+01  0.37816214462E+02  0.51100000000E-03 0.  1.
        -12    1    3    3    0    0  0.73237627494E+01  0.10226710625E+01 -0.10365489988E+01  0.74671139498E+01  0.00000000000E+00 0.  1.
</event>
<event>
 7    1  0.5972636E-013  0.5052886E+02  0.7816164E-02  0.1300439E+00
        -11   -1    0    0    0    0  0.00000000000E+00  0.00000000000E+00  0.45593999997E+02  0.45594000000E+02  0.51100000000E-03 0.  1.
         11   -1    0    0    0    0 -0.00000000000E+00 -0.00000000000E+00 -0.45593999997E+02  0.45594000000E+02  0.51100000000E-03 0. -1.
    9900012    2    1    2    0    0  0.29104067615E+02 -0.27488962995E+02  0.71046382798E+01  0.50528859290E+02  0.29999998297E+02 0.  0.
         12    1    1    2    0    0 -0.29104067615E+02  0.27488962995E+02 -0.71046382798E+01  0.40659140710E+02  0.00000000000E+00 0. -1.
         11    1    3    3    0    0 -0.33558021817E+01 -0.17684482788E+01 -0.11342285963E+01  0.39592035016E+01  0.51100000000E-03 0. -1.
        -11    1    3    3    0    0  0.33476387944E+02 -0.23003821405E+02  0.11490493296E+02  0.42212270555E+02  0.51100000000E-03 0.  1.
        -12    1    3    3    0    0 -0.10165181474E+01 -0.27166933110E+01 -0.32516264202E+01  0.43573852327E+01  0.00000000000E+00 0.  1.
</event>
<event>
 7    1  0.5972636E-013  0.5052886E+02  0.7816164E-02  0.1300439E+00
        -11   -1    0    0    0    0  0.00000000000E+00  0.00000000000E+00  0.45593999997E+02  0.45594000000E+02  0.51100000000E-03 0. -1.
         11   -1    0    0    0    0 -0.00000000000E+00 -0.00000000000E+00 -0.45593999997E+02  0.45594000000E+02  0.51100000000E-03 0.  1.
    9900012    2    1    2    0    0 -0.27056423629E+02 -0.29157935240E+02 -0.84220311341E+01  0.50528857664E+02  0.29999993356E+02 0.  0.
         12    1    1    2    0    0  0.27056423629E+02  0.29157935240E+02  0.84220311341E+01  0.40659142336E+02  0.00000000000E+00 0. -1.
         11    1    3    3    0    0 -0.26656031925E+02 -0.73494752971E+01 -0.37724938589E+01  0.27906818796E+02  0.51100000000E-03 0. -1.
        -11    1    3    3    0    0  0.13722156743E+01 -0.90034152392E+01 -0.84416025726E+00  0.91464238163E+01  0.51100000000E-03 0.  1.
        -12    1    3    3    0    0 -0.17726073785E+01 -0.12805044704E+02 -0.38053770180E+01  0.13475615052E+02  0.00000000000E+00 0.  1.
</event>
<event>
 7    1  0.5972636E-013  0.5052886E+02  0.7816164E-02  0.1300439E+00
        -11   -1    0    0    0    0  0.00000000000E+00  0.00000000000E+00  0.45593999997E+02  0.45594000000E+02  0.51100000000E-03 0.  1.
         11   -1    0    0    0    0 -0.00000000000E+00 -0.00000000000E+00 -0.45593999997E+02  0.45594000000E+02  0.51100000000E-03 0. -1.
    9900012    2    1    2    0    0 -0.33855938746E+02  0.35697318470E+00  0.22512530916E+02  0.50528855070E+02  0.29999985470E+02 0.  0.
         12    1    1    2    0    0  0.33855938746E+02 -0.35697318470E+00 -0.22512530916E+02  0.40659144930E+02  0.00000000000E+00 0. -1.
         11    1    3    3    0    0 -0.84411820851E+01  0.67710272158E+01  0.50373912956E+00  0.10833010566E+02  0.51100000000E-03 0. -1.
        -11    1    3    3    0    0 -0.27718137409E+02 -0.62848136920E+01  0.14632569522E+02  0.31967266315E+02  0.51100000000E-03 0.  1.
        -12    1    3    3    0    0  0.23033807479E+01 -0.12924033912E+00  0.73762222639E+01  0.77285781889E+01  0.00000000000E+00 0.  1.
</event>
<event>
 7    1  0.5972636E-013  0.5052886E+02  0.7816164E-02  0.1300439E+00
        -11   -1    0    0    0    0  0.00000000000E+00  0.00000000000E+00  0.45593999997E+02  0.45594000000E+02  0.51100000000E-03 0.  1.
         11   -1    0    0    0    0 -0.00000000000E+00 -0.00000000000E+00 -0.45593999997E+02  0.45594000000E+02  0.51100000000E-03 0. -1.
    9900012    2    1    2    0    0 -0.20845233432E+02  0.93478369061E+01  0.33634206562E+02  0.50528860035E+02  0.30000000561E+02 0.  0.
         12    1    1    2    0    0  0.20845233432E+02 -0.93478369061E+01 -0.33634206562E+02  0.40659139965E+02  0.00000000000E+00 0. -1.
         11    1    3    3    0    0 -0.82267516406E+01 -0.98059244113E+01  0.57353855853E+01  0.14026055903E+02  0.51100000000E-03 0. -1.
        -11    1    3    3    0    0 -0.69181729998E+01  0.58346531777E+01  0.10507969181E+02  0.13868010381E+02  0.51100000000E-03 0.  1.
         12    1    3    3    0    0 -0.57003087918E+01  0.13319108140E+02  0.17390851796E+02  0.22634793751E+02  0.00000000000E+00 0. -1.
</event>
<event>
 7    1  0.5972636E-013  0.5052886E+02  0.7816164E-02  0.1300439E+00
        -11   -1    0    0    0    0  0.00000000000E+00  0.00000000000E+00  0.45593999997E+02  0.45594000000E+02  0.51100000000E-03 0.  1.
         11   -1    0    0    0    0 -0.00000000000E+00 -0.00000000000E+00 -0.45593999997E+02  0.45594000000E+02  0.51100000000E-03 0. -1.
    9900012    2    1    2    0    0 -0.33913831879E+02 -0.18096360758E+02  0.13249121800E+02  0.50528862111E+02  0.30000006874E+02 0.  0.
         12    1    1    2    0    0  0.33913831879E+02  0.18096360758E+02 -0.13249121800E+02  0.40659137889E+02  0.00000000000E+00 0. -1.
         11    1    3    3    0    0 -0.26510848467E+01  0.45130836263E+00 -0.31021164800E+01  0.41054910814E+01  0.51100000000E-03 0. -1.
        -11    1    3    3    0    0 -0.17583297690E+02 -0.10410422093E+02  0.21532103710E+02  0.29684688582E+02  0.51100000000E-03 0.  1.
        -12    1    3    3    0    0 -0.13679449342E+02 -0.81372470272E+01 -0.51808654294E+01  0.16738682448E+02  0.00000000000E+00 0.  1.
</event>
<event>
 7    1  0.5972636E-013  0.5052887E+02  0.7816164E-02  0.1300439E+00
        -11   -1    0    0    0    0  0.00000000000E+00  0.00000000000E+00  0.45593999997E+02  0.45594000000E+02  0.51100000000E-03 0.  1.
         11   -1    0    0    0    0 -0.00000000000E+00 -0.00000000000E+00 -0.45593999997E+02  0.45594000000E+02  0.51100000000E-03 0. -1.
    9900012    2    1    2    0    0  0.22860436275E+02  0.15901682013E+01  0.33586260421E+02  0.50528867315E+02  0.30000022690E+02 0.  0.
         12    1    1    2    0    0 -0.22860436275E+02 -0.15901682013E+01 -0.33586260421E+02  0.40659132685E+02  0.00000000000E+00 0. -1.
         11    1    3    3    0    0  0.26539795580E+02 -0.60898055575E+01  0.25342280771E+02  0.37197818163E+02  0.51100000000E-03 0. -1.
        -11    1    3    3    0    0 -0.48029539980E+01  0.32742646646E+01  0.36294748954E+01  0.68529019020E+01  0.51100000000E-03 0.  1.
         12    1    3    3    0    0  0.11235946937E+01  0.44057090942E+01  0.46145047551E+01  0.64781472500E+01  0.00000000000E+00 0. -1.
</event>
<event>
 7    1  0.5972636E-013  0.5052886E+02  0.7816164E-02  0.1300439E+00
        -11   -1    0    0    0    0  0.00000000000E+00  0.00000000000E+00  0.45593999997E+02  0.45594000000E+02  0.51100000000E-03 0. -1.
         11   -1    0    0    0    0 -0.00000000000E+00 -0.00000000000E+00 -0.45593999997E+02  0.45594000000E+02  0.51100000000E-03 0.  1.
    9900012    2    1    2    0    0  0.40464287631E+02 -0.24847766664E+01 -0.31037377433E+01  0.50528857405E+02  0.29999992568E+02 0.  0.
         12    1    1    2    0    0 -0.40464287631E+02  0.24847766664E+01  0.31037377433E+01  0.40659142595E+02  0.00000000000E+00 0. -1.
         11    1    3    3    0    0  0.24801708767E+02  0.12353511373E+02 -0.43225567853E+01  0.28043154216E+02  0.51100000000E-03 0. -1.
        -11    1    3    3    0    0  0.15100828110E+02 -0.11306702615E+02  0.75530458040E+00  0.18879804524E+02  0.51100000000E-03 0.  1.
        -12    1    3    3    0    0  0.56175075511E+00 -0.35315854243E+01  0.46351446161E+00  0.36058986642E+01  0.00000000000E+00 0.  1.
</event>
<event>
 7    1  0.5972636E-013  0.5052885E+02  0.7816164E-02  0.1300439E+00
        -11   -1    0    0    0    0  0.00000000000E+00  0.00000000000E+00  0.45593999997E+02  0.45594000000E+02  0.51100000000E-03 0. -1.
         11   -1    0    0    0    0 -0.00000000000E+00 -0.00000000000E+00 -0.45593999997E+02  0.45594000000E+02  0.51100000000E-03 0.  1.
    9900012    2    1    2    0    0 -0.39459580958E+02  0.49610220785E+01 -0.84555235959E+01  0.50528854058E+02  0.29999982396E+02 0.  0.
         12    1    1    2    0    0  0.39459580958E+02 -0.49610220785E+01  0.84555235959E+01  0.40659145942E+02  0.00000000000E+00 0. -1.
         11    1    3    3    0    0 -0.57658591984E+01  0.25397396701E+01 -0.10600538829E+02  0.12331538169E+02  0.51100000000E-03 0. -1.
        -11    1    3    3    0    0 -0.19946991088E+02  0.44765695948E+01  0.94199508429E+01  0.22509056021E+02  0.51100000000E-03 0.  1.
        -12    1    3    3    0    0 -0.13746730672E+02 -0.20552871864E+01 -0.72749356096E+01  0.15688259869E+02  0.00000000000E+00 0.  1.
</event>
<event>
 7    1  0.5972636E-013  0.5052885E+02  0.7816164E-02  0.1300439E+00
        -11   -1    0    0    0    0  0.00000000000E+00  0.00000000000E+00  0.45593999997E+02  0.45594000000E+02  0.51100000000E-03 0.  1.
         11   -1    0    0    0    0 -0.00000000000E+00 -0.00000000000E+00 -0.45593999997E+02  0.45594000000E+02  0.51100000000E-03 0. -1.
    9900012    2    1    2    0    0  0.20537685662E+01  0.19885587898E+02  0.35404964726E+02  0.50528854674E+02  0.29999984267E+02 0.  0.
         12    1    1    2    0    0 -0.20537685662E+01 -0.19885587898E+02 -0.35404964726E+02  0.40659145326E+02  0.00000000000E+00 0. -1.
         11    1    3    3    0    0 -0.50588415410E+01 -0.45587043419E+01  0.81497917526E+01  0.10620394008E+02  0.51100000000E-03 0. -1.
        -11    1    3    3    0    0  0.13441751540E+00  0.21046164443E+02  0.17044695344E+02  0.27082849655E+02  0.51100000000E-03 0.  1.
         12    1    3    3    0    0  0.69781925918E+01  0.33981277973E+01  0.10210477629E+02  0.12825611010E+02  0.00000000000E+00 0. -1.
</event>
<event>
 7    1  0.5972636E-013  0.5052877E+02  0.7816164E-02  0.1300439E+00
        -11   -1    0    0    0    0  0.00000000000E+00  0.00000000000E+00  0.45593999997E+02  0.45594000000E+02  0.51100000000E-03 0.  1.
         11   -1    0    0    0    0 -0.00000000000E+00 -0.00000000000E+00 -0.45593999997E+02  0.45594000000E+02  0.51100000000E-03 0. -1.
    9900012    2    1    2    0    0  0.94557645335E+01 -0.25480415976E+02  0.30240864275E+02  0.50528770379E+02  0.29999728044E+02 0.  0.
         12    1    1    2    0    0 -0.94557645335E+01  0.25480415976E+02 -0.30240864275E+02  0.40659229621E+02  0.00000000000E+00 0. -1.
         11    1    3    3    0    0 -0.57600963922E+01 -0.16151621524E+02  0.21621796837E+02  0.27596298430E+02  0.51100000000E-03 0.  1.
        -11    1    3    3    0    0  0.11190033427E+02 -0.70071372093E+01  0.71362922239E-01  0.13203102397E+02  0.51100000000E-03 0. -1.
        -12    1    3    3    0    0  0.40258274983E+01 -0.23216572425E+01  0.85477045158E+01  0.97293695524E+01  0.00000000000E+00 0.  1.
</event>
<event>
 7    1  0.5972636E-013  0.5052885E+02  0.7816164E-02  0.1300439E+00
        -11   -1    0    0    0    0  0.00000000000E+00  0.00000000000E+00  0.45593999997E+02  0.45594000000E+02  0.51100000000E-03 0. -1.
         11   -1    0    0    0    0 -0.00000000000E+00 -0.00000000000E+00 -0.45593999997E+02  0.45594000000E+02  0.51100000000E-03 0.  1.
    9900012    2    1    2    0    0 -0.65351233495E+01 -0.49102266765E+01 -0.39828984147E+02  0.50528854148E+02  0.29999982668E+02 0.  0.
         12    1    1    2    0    0  0.65351233495E+01  0.49102266765E+01  0.39828984147E+02  0.40659145852E+02  0.00000000000E+00 0. -1.
         11    1    3    3    0    0  0.11852517713E+01 -0.67469998841E+01 -0.26867043016E+00  0.68555826345E+01  0.51100000000E-03 0. -1.
        -11    1    3    3    0    0 -0.97619936609E+01  0.71796611579E+01 -0.31817308800E+02  0.34046808868E+02  0.51100000000E-03 0.  1.
        -12    1    3    3    0    0  0.20416185401E+01 -0.53428879504E+01 -0.77430049173E+01  0.96264626454E+01  0.00000000000E+00 0.  1.
</event>
<event>
 7    1  0.5972636E-013  0.5052885E+02  0.7816164E-02  0.1300439E+00
        -11   -1    0    0    0    0  0.00000000000E+00  0.00000000000E+00  0.45593999997E+02  0.45594000000E+02  0.51100000000E-03 0. -1.
         11   -1    0    0    0    0 -0.00000000000E+00 -0.00000000000E+00 -0.45593999997E+02  0.45594000000E+02  0.51100000000E-03 0.  1.
    9900012    2    1    2    0    0  0.31152652845E+02 -0.20631776357E+02 -0.16031473451E+02  0.50528854461E+02  0.29999983620E+02 0.  0.
         12    1    1    2    0    0 -0.31152652845E+02  0.20631776357E+02  0.16031473451E+02  0.40659145539E+02  0.00000000000E+00 0. -1.
         11    1    3    3    0    0  0.38441179765E+01 -0.94146124317E+01 -0.11415826948E+02  0.15288337889E+02  0.51100000000E-03 0. -1.
        -11    1    3    3    0    0  0.24788517051E+02 -0.40983342386E+01 -0.87821687836E+01  0.26615660989E+02  0.51100000000E-03 0.  1.
        -12    1    3    3    0    0  0.25200178179E+01 -0.71188296866E+01  0.41665222798E+01  0.86248555824E+01  0.00000000000E+00 0.  1.
</event>
<event>
 7    1  0.5972636E-013  0.5052885E+02  0.7816164E-02  0.1300439E+00
        -11   -1    0    0    0    0  0.00000000000E+00  0.00000000000E+00  0.45593999997E+02  0.45594000000E+02  0.51100000000E-03 0. -1.
         11   -1    0    0    0    0 -0.00000000000E+00 -0.00000000000E+00 -0.45593999997E+02  0.45594000000E+02  0.51100000000E-03 0.  1.
    9900012    2    1    2    0    0  0.20611839560E+02  0.29984505942E+02 -0.18145181603E+02  0.50528854140E+02  0.29999982645E+02 0.  0.
         12    1    1    2    0    0 -0.20611839560E+02 -0.29984505942E+02  0.18145181603E+02  0.40659145860E+02  0.00000000000E+00 0. -1.
         11    1    3    3    0    0  0.75628750434E+00  0.59174626331E+01 -0.13097249440E+02  0.14391882363E+02  0.51100000000E-03 0. -1.
        -11    1    3    3    0    0  0.42268749480E+01  0.18834864767E-01 -0.61183770019E+01  0.74364886860E+01  0.51100000000E-03 0.  1.
         12    1    3    3    0    0  0.15628677108E+02  0.24048208444E+02  0.10704448393E+01  0.28700483091E+02  0.00000000000E+00 0. -1.
</event>
<event>
 7    1  0.5972636E-013  0.5052886E+02  0.7816164E-02  0.1300439E+00
        -11   -1    0    0    0    0  0.00000000000E+00  0.00000000000E+00  0.45593999997E+02  0.45594000000E+02  0.51100000000E-03 0.  1.
         11   -1    0    0    0    0 -0.00000000000E+00 -0.00000000000E+00 -0.45593999997E+02  0.45594000000E+02  0.51100000000E-03 0. -1.
    9900012    2    1    2    0    0  0.10865806008E+02 -0.38266881262E+02  0.84110293572E+01  0.50528863799E+02  0.30000012004E+02 0.  0.
         12    1    1    2    0    0 -0.10865806008E+02  0.38266881262E+02 -0.84110293572E+01  0.40659136201E+02  0.00000000000E+00 0. -1.
         11    1    3    3    0    0  0.45001247428E+01  0.12327680560E+00  0.70925468524E+01  0.84006274162E+01  0.51100000000E-03 0. -1.
        -11    1    3    3    0    0  0.62807294669E+00 -0.31608731173E+02  0.58570571392E+01  0.32152938910E+02  0.51100000000E-03 0.  1.
        -12    1    3    3    0    0  0.57376083189E+01 -0.67814268953E+01 -0.45385746344E+01  0.99752974727E+01  0.00000000000E+00 0.  1.
</event>
<event>
 7    1  0.5972636E-013  0.5052888E+02  0.7816164E-02  0.1300439E+00
        -11   -1    0    0    0    0  0.00000000000E+00  0.00000000000E+00  0.45593999997E+02  0.45594000000E+02  0.51100000000E-03 0.  1.
         11   -1    0    0    0    0 -0.00000000000E+00 -0.00000000000E+00 -0.45593999997E+02  0.45594000000E+02  0.51100000000E-03 0. -1.
    9900012    2    1    2    0    0  0.26228860326E+02 -0.16843040039E+02  0.26105987424E+02  0.50528884280E+02  0.30000074256E+02 0.  0.
         12    1    1    2    0    0 -0.26228860326E+02  0.16843040039E+02 -0.26105987424E+02  0.40659115720E+02  0.00000000000E+00 0. -1.
         11    1    3    3    0    0  0.65200975370E+01  0.25531612884E+01 -0.23072538634E+00  0.70059645247E+01  0.51100000000E-03 0. -1.
        -11    1    3    3    0    0  0.17450874374E+02 -0.22523200587E+02  0.16426383544E+02  0.32888503427E+02  0.51100000000E-03 0.  1.
        -12    1    3    3    0    0  0.22578884145E+01  0.31269992587E+01  0.99103292664E+01  0.10634416327E+02  0.00000000000E+00 0.  1.
</event>
<event>
 7    1  0.5972636E-013  0.5052886E+02  0.7816164E-02  0.1300439E+00
        -11   -1    0    0    0    0  0.00000000000E+00  0.00000000000E+00  0.45593999997E+02  0.45594000000E+02  0.51100000000E-03 0.  1.
         11   -1    0    0    0    0 -0.00000000000E+00 -0.00000000000E+00 -0.45593999997E+02  0.45594000000E+02  0.51100000000E-03 0. -1.
    9900012    2    1    2    0    0 -0.63520123382E+01  0.39475810470E+02 -0.73809322891E+01  0.50528857923E+02  0.29999994143E+02 0.  0.
         12    1    1    2    0    0  0.63520123382E+01 -0.39475810470E+02  0.73809322891E+01  0.40659142077E+02  0.00000000000E+00 0. -1.
         11    1    3    3    0    0 -0.79310524376E+01  0.22433059594E+02 -0.13428755492E+02  0.27321698883E+02  0.51100000000E-03 0. -1.
        -11    1    3    3    0    0  0.66251997549E+01  0.54110536026E+01  0.61367939257E+01  0.10527725910E+02  0.51100000000E-03 0.  1.
         12    1    3    3    0    0 -0.50461596556E+01  0.11631697273E+02 -0.88970722418E-01  0.12679433130E+02  0.00000000000E+00 0. -1.
</event>
<event>
 7    1  0.5972636E-013  0.5052886E+02  0.7816164E-02  0.1300439E+00
        -11   -1    0    0    0    0  0.00000000000E+00  0.00000000000E+00  0.45593999997E+02  0.45594000000E+02  0.51100000000E-03 0.  1.
         11   -1    0    0    0    0 -0.00000000000E+00 -0.00000000000E+00 -0.45593999997E+02  0.45594000000E+02  0.51100000000E-03 0. -1.
    9900012    2    1    2    0    0  0.21561087091E+02  0.14371471011E+01  0.34441542699E+02  0.50528859185E+02  0.29999997978E+02 0.  0.
         12    1    1    2    0    0 -0.21561087091E+02 -0.14371471011E+01 -0.34441542699E+02  0.40659140815E+02  0.00000000000E+00 0. -1.
         11    1    3    3    0    0 -0.13897576322E+01 -0.32046482279E+01  0.11150322657E+02  0.11684643433E+02  0.51100000000E-03 0. -1.
        -11    1    3    3    0    0  0.20717772128E+02 -0.28632189062E+01  0.22886633060E+02  0.31003581689E+02  0.51100000000E-03 0.  1.
        -12    1    3    3    0    0  0.22330725951E+01  0.75050142353E+01  0.40458698245E+00  0.78406340632E+01  0.00000000000E+00 0.  1.
</event>
<event>
 7    1  0.5972636E-013  0.5052885E+02  0.7816164E-02  0.1300439E+00
        -11   -1    0    0    0    0  0.00000000000E+00  0.00000000000E+00  0.45593999997E+02  0.45594000000E+02  0.51100000000E-03 0.  1.
         11   -1    0    0    0    0 -0.00000000000E+00 -0.00000000000E+00 -0.45593999997E+02  0.45594000000E+02  0.51100000000E-03 0. -1.
    9900012    2    1    2    0    0  0.36505694173E+02 -0.16309861288E+02  0.73816603198E+01  0.50528853533E+02  0.29999980800E+02 0.  0.
         12    1    1    2    0    0 -0.36505694173E+02  0.16309861288E+02 -0.73816603198E+01  0.40659146467E+02  0.00000000000E+00 0. -1.
         11    1    3    3    0    0 -0.14543202254E+01 -0.97292294181E+00 -0.67639670455E+01  0.69866212738E+01  0.51100000000E-03 0. -1.
        -11    1    3    3    0    0  0.32879273295E+02 -0.14129876412E+02  0.10970735671E+02  0.37430696777E+02  0.51100000000E-03 0.  1.
         12    1    3    3    0    0  0.50807411041E+01 -0.12070619339E+01  0.31748916944E+01  0.61115354822E+01  0.00000000000E+00 0. -1.
</event>
<event>
 7    1  0.5972636E-013  0.5052885E+02  0.7816164E-02  0.1300439E+00
        -11   -1    0    0    0    0  0.00000000000E+00  0.00000000000E+00  0.45593999997E+02  0.45594000000E+02  0.51100000000E-03 0. -1.
         11   -1    0    0    0    0 -0.00000000000E+00 -0.00000000000E+00 -0.45593999997E+02  0.45594000000E+02  0.51100000000E-03 0.  1.
    9900012    2    1    2    0    0  0.19577313653E+02  0.28751190801E+02 -0.21053836855E+02  0.50528853075E+02  0.29999979406E+02 0.  0.
         12    1    1    2    0    0 -0.19577313653E+02 -0.28751190801E+02  0.21053836855E+02  0.40659146925E+02  0.00000000000E+00 0. -1.
         11    1    3    3    0    0 -0.47802477896E+01 -0.55935824151E-01 -0.61448171851E+01  0.77854143271E+01  0.51100000000E-03 0. -1.
        -11    1    3    3    0    0  0.16211385493E+02  0.23246081390E+02 -0.16437323031E+02  0.32762400832E+02  0.51100000000E-03 0.  1.
        -12    1    3    3    0    0  0.81461759497E+01  0.55610452349E+01  0.15283033609E+01  0.99810379155E+01  0.00000000000E+00 0.  1.
</event>
<event>
 7    1  0.5972636E-013  0.5052884E+02  0.7816164E-02  0.1300439E+00
        -11   -1    0    0    0    0  0.00000000000E+00  0.00000000000E+00  0.45593999997E+02  0.45594000000E+02  0.51100000000E-03 0. -1.
         11   -1    0    0    0    0 -0.00000000000E+00 -0.00000000000E+00 -0.45593999997E+02  0.45594000000E+02  0.51100000000E-03 0.  1.
    9900012    2    1    2    0    0 -0.33510355800E+00  0.15254354845E+02 -0.37687660090E+02  0.50528839173E+02  0.29999937149E+02 0.  0.
         12    1    1    2    0    0  0.33510355800E+00 -0.15254354845E+02  0.37687660090E+02  0.40659160827E+02  0.00000000000E+00 0. -1.
         11    1    3    3    0    0 -0.60156955018E+01 -0.19940199597E+01 -0.72644340062E+01  0.96403687513E+01  0.51100000000E-03 0. -1.
        -11    1    3    3    0    0  0.12513586253E+02  0.74206828289E+01 -0.21495738156E+02  0.25956177178E+02  0.51100000000E-03 0.  1.
        -12    1    3    3    0    0 -0.68329943093E+01  0.98276919755E+01 -0.89274879277E+01  0.14932293243E+02  0.00000000000E+00 0.  1.
</event>
<event>
 7    1  0.5972636E-013  0.5052886E+02  0.7816164E-02  0.1300439E+00
        -11   -1    0    0    0    0  0.00000000000E+00  0.00000000000E+00  0.45593999997E+02  0.45594000000E+02  0.51100000000E-03 0. -1.
         11   -1    0    0    0    0 -0.00000000000E+00 -0.00000000000E+00 -0.45593999997E+02  0.45594000000E+02  0.51100000000E-03 0.  1.
    9900012    2    1    2    0    0 -0.10795342377E+02 -0.37127751174E+02 -0.12576030702E+02  0.50528857455E+02  0.29999992720E+02 0.  0.
         12    1    1    2    0    0  0.10795342377E+02  0.37127751174E+02  0.12576030702E+02  0.40659142545E+02  0.00000000000E+00 0. -1.
         11    1    3    3    0    0 -0.80777446533E+01  0.10063301986E+01 -0.64799742161E+01  0.10404456990E+02  0.51100000000E-03 0. -1.
        -11    1    3    3    0    0 -0.24471534699E+01 -0.22188073683E+02 -0.87130469327E+01  0.23962812043E+02  0.51100000000E-03 0.  1.
         12    1    3    3    0    0 -0.27044425433E+00 -0.15946007689E+02  0.26169904472E+01  0.16161588422E+02  0.00000000000E+00 0. -1.
</event>
<event>
 7    1  0.5972636E-013  0.5052887E+02  0.7816164E-02  0.1300439E+00
        -11   -1    0    0    0    0  0.00000000000E+00  0.00000000000E+00  0.45593999997E+02  0.45594000000E+02  0.51100000000E-03 0. -1.
         11   -1    0    0    0    0 -0.00000000000E+00 -0.00000000000E+00 -0.45593999997E+02  0.45594000000E+02  0.51100000000E-03 0.  1.
    9900012    2    1    2    0    0 -0.30369245658E+02  0.26758976708E+02  0.38510680609E+01  0.50528872592E+02  0.30000038732E+02 0.  0.
         12    1    1    2    0    0  0.30369245658E+02 -0.26758976708E+02 -0.38510680609E+01  0.40659127408E+02  0.00000000000E+00 0. -1.
         11    1    3    3    0    0 -0.39659667004E+01  0.19115456963E+01 -0.63050971015E+01  0.76900681751E+01  0.51100000000E-03 0. -1.
        -11    1    3    3    0    0 -0.17229555862E+02  0.28712398720E+01  0.69954366447E+01  0.18815890830E+02  0.51100000000E-03 0.  1.
        -12    1    3    3    0    0 -0.91737230959E+01  0.21976191140E+02  0.31607285178E+01  0.24022913587E+02  0.00000000000E+00 0.  1.
</event>
<event>
 7    1  0.5972636E-013  0.5052886E+02  0.7816164E-02  0.1300439E+00
        -11   -1    0    0    0    0  0.00000000000E+00  0.00000000000E+00  0.45593999997E+02  0.45594000000E+02  0.51100000000E-03 0.  1.
         11   -1    0    0    0    0 -0.00000000000E+00 -0.00000000000E+00 -0.45593999997E+02  0.45594000000E+02  0.51100000000E-03 0. -1.
    9900012    2    1    2    0    0  0.69847861678E+01 -0.68077266945E+01  0.39471933481E+02  0.50528856954E+02  0.29999991196E+02 0.  0.
         12    1    1    2    0    0 -0.69847861678E+01  0.68077266945E+01 -0.39471933481E+02  0.40659143046E+02  0.00000000000E+00 0. -1.
         11    1    3    3    0    0  0.80506013047E+01  0.26254189544E+01  0.21274660823E+02  0.22897951862E+02  0.51100000000E-03 0. -1.
        -11    1    3    3    0    0  0.22927621312E+01  0.24711264285E+01 -0.20201658509E+01  0.39299229435E+01  0.51100000000E-03 0.  1.
        -12    1    3    3    0    0 -0.33585772680E+01 -0.11904272077E+02  0.20217438508E+02  0.23700982148E+02  0.00000000000E+00 0.  1.
</event>
<event>
 7    1  0.5972636E-013  0.5052886E+02  0.7816164E-02  0.1300439E+00
        -11   -1    0    0    0    0  0.00000000000E+00  0.00000000000E+00  0.45593999997E+02  0.45594000000E+02  0.51100000000E-03 0.  1.
         11   -1    0    0    0    0 -0.00000000000E+00 -0.00000000000E+00 -0.45593999997E+02  0.45594000000E+02  0.51100000000E-03 0. -1.
    9900012    2    1    2    0    0  0.29668371334E+02  0.19495610836E+02  0.19821066302E+02  0.50528858730E+02  0.29999996595E+02 0.  0.
         12    1    1    2    0    0 -0.29668371334E+02 -0.19495610836E+02 -0.19821066302E+02  0.40659141270E+02  0.00000000000E+00 0. -1.
         11    1    3    3    0    0  0.14398925997E+02  0.17140386284E+02  0.31428508866E+01  0.22605296366E+02  0.51100000000E-03 0. -1.
        -11    1    3    3    0    0 -0.10784366840E+01 -0.20672872657E+01  0.90568136578E+01  0.93521428675E+01  0.51100000000E-03 0.  1.
        -12    1    3    3    0    0  0.16347882021E+02  0.44225118179E+01  0.76214017573E+01  0.18571419496E+02  0.00000000000E+00 0.  1.
</event>
<event>
 7    1  0.5972636E-013  0.5052886E+02  0.7816164E-02  0.1300439E+00
        -11   -1    0    0    0    0  0.00000000000E+00  0.00000000000E+00  0.45593999997E+02  0.45594000000E+02  0.51100000000E-03 0. -1.
         11   -1    0    0    0    0 -0.00000000000E+00 -0.00000000000E+00 -0.45593999997E+02  0.45594000000E+02  0.51100000000E-03 0.  1.
    9900012    2    1    2    0    0  0.21990176056E+02 -0.32639803364E+02 -0.10209854662E+02  0.50528859099E+02  0.29999997716E+02 0.  0.
         12    1    1    2    0    0 -0.21990176056E+02  0.32639803364E+02  0.10209854662E+02  0.40659140901E+02  0.00000000000E+00 0. -1.
         11    1    3    3    0    0  0.26546800300E+01 -0.41533990344E+01  0.84581101150E+01  0.97896719342E+01  0.51100000000E-03 0. -1.
        -11    1    3    3    0    0  0.15600192328E+02 -0.27573884022E+02 -0.13853085291E+02  0.34577348844E+02  0.51100000000E-03 0.  1.
         12    1    3    3    0    0  0.37353036974E+01 -0.91252030796E+00 -0.48148794858E+01  0.61618383204E+01  0.00000000000E+00 0. -1.
</event>
<event>
 7    1  0.5972636E-013  0.5052886E+02  0.7816164E-02  0.1300439E+00
        -11   -1    0    0    0    0  0.00000000000E+00  0.00000000000E+00  0.45593999997E+02  0.45594000000E+02  0.51100000000E-03 0.  1.
         11   -1    0    0    0    0 -0.00000000000E+00 -0.00000000000E+00 -0.45593999997E+02  0.45594000000E+02  0.51100000000E-03 0. -1.
    9900012    2    1    2    0    0 -0.10759258835E+02 -0.21400386826E+02  0.32854646647E+02  0.50528855724E+02  0.29999987458E+02 0.  0.
         12    1    1    2    0    0  0.10759258835E+02  0.21400386826E+02 -0.32854646647E+02  0.40659144276E+02  0.00000000000E+00 0. -1.
         11    1    3    3    0    0 -0.10034857982E+02 -0.34679073236E+01  0.22629062064E+01  0.10855666755E+02  0.51100000000E-03 0. -1.
        -11    1    3    3    0    0  0.51637768203E+01 -0.14809129720E+02  0.11490365940E+02  0.19442310146E+02  0.51100000000E-03 0.  1.
        -12    1    3    3    0    0 -0.58881776730E+01 -0.31233497828E+01  0.19101374500E+02  0.20230878824E+02  0.00000000000E+00 0.  1.
</event>
<event>
 7    1  0.5972636E-013  0.5052876E+02  0.7816164E-02  0.1300439E+00
        -11   -1    0    0    0    0  0.00000000000E+00  0.00000000000E+00  0.45593999997E+02  0.45594000000E+02  0.51100000000E-03 0. -1.
         11   -1    0    0    0    0 -0.00000000000E+00 -0.00000000000E+00 -0.45593999997E+02  0.45594000000E+02  0.51100000000E-03 0.  1.
    9900012    2    1    2    0    0 -0.35974382003E+02  0.11488542371E+02 -0.15067543577E+02  0.50528761988E+02  0.29999702536E+02 0.  0.
         12    1    1    2    0    0  0.35974382003E+02 -0.11488542371E+02  0.15067543577E+02  0.40659238012E+02  0.00000000000E+00 0. -1.
         11    1    3    3    0    0 -0.84403758534E+01  0.10827541952E+01  0.85155490535E+00  0.85520434524E+01  0.51100000000E-03 0. -1.
        -11    1    3    3    0    0 -0.12348641293E+02 -0.63563740604E+01 -0.13261828029E+02  0.19203346477E+02  0.51100000000E-03 0.  1.
        -12    1    3    3    0    0 -0.15185364856E+02  0.16762162236E+02 -0.26572704532E+01  0.22773372058E+02  0.00000000000E+00 0.  1.
</event>
<event>
 7    1  0.5972636E-013  0.5052889E+02  0.7816164E-02  0.1300439E+00
        -11   -1    0    0    0    0  0.00000000000E+00  0.00000000000E+00  0.45593999997E+02  0.45594000000E+02  0.51100000000E-03 0.  1.
         11   -1    0    0    0    0 -0.00000000000E+00 -0.00000000000E+00 -0.45593999997E+02  0.45594000000E+02  0.51100000000E-03 0. -1.
    9900012    2    1    2    0    0 -0.21649103901E+02  0.76055019294E+01  0.33565400892E+02  0.50528886675E+02  0.30000081538E+02 0.  0.
         12    1    1    2    0    0  0.21649103901E+02 -0.76055019294E+01 -0.33565400892E+02  0.40659113325E+02  0.00000000000E+00 0. -1.
         11    1    3    3    0    0 -0.31639444543E+01  0.65277109704E+01  0.22965602272E+01  0.76089252960E+01  0.51100000000E-03 0. -1.
        -11    1    3    3    0    0  0.12833179128E+01  0.97058945645E+00  0.20198697343E+02  0.20262683025E+02  0.51100000000E-03 0.  1.
        -12    1    3    3    0    0 -0.19768477359E+02  0.10720150258E+00  0.11070143322E+02  0.22657278355E+02  0.00000000000E+00 0.  1.
</event>
<event>
 7    1  0.5972636E-013  0.5052887E+02  0.7816164E-02  0.1300439E+00
        -11   -1    0    0    0    0  0.00000000000E+00  0.00000000000E+00  0.45593999997E+02  0.45594000000E+02  0.51100000000E-03 0.  1.
         11   -1    0    0    0    0 -0.00000000000E+00 -0.00000000000E+00 -0.45593999997E+02  0.45594000000E+02  0.51100000000E-03 0. -1.
    9900012    2    1    2    0    0  0.73638482742E+01 -0.39924311894E+02 -0.22334393412E+01  0.50528865812E+02  0.30000018121E+02 0.  0.
         12    1    1    2    0    0 -0.73638482742E+01  0.39924311894E+02  0.22334393412E+01  0.40659134188E+02  0.00000000000E+00 0. -1.
         11    1    3    3    0    0 -0.31634105430E+01 -0.23569481662E+02 -0.42471373801E+01  0.24157106786E+02  0.51100000000E-03 0. -1.
        -11    1    3    3    0    0  0.95355854881E+01 -0.66236737967E+01  0.87129082253E+01  0.14516033038E+02  0.51100000000E-03 0.  1.
        -12    1    3    3    0    0  0.99167332907E+00 -0.97311564359E+01 -0.66992101864E+01  0.11855725988E+02  0.00000000000E+00 0.  1.
</event>
<event>
 7    1  0.5972636E-013  0.5052886E+02  0.7816164E-02  0.1300439E+00
        -11   -1    0    0    0    0  0.00000000000E+00  0.00000000000E+00  0.45593999997E+02  0.45594000000E+02  0.51100000000E-03 0. -1.
         11   -1    0    0    0    0 -0.00000000000E+00 -0.00000000000E+00 -0.45593999997E+02  0.45594000000E+02  0.51100000000E-03 0.  1.
    9900012    2    1    2    0    0  0.17756359766E+02 -0.22005703487E+02 -0.29216890218E+02  0.50528856230E+02  0.29999988997E+02 0.  0.
         12    1    1    2    0    0 -0.17756359766E+02  0.22005703487E+02  0.29216890218E+02  0.40659143770E+02  0.00000000000E+00 0. -1.
         11    1    3    3    0    0  0.15191427070E+02  0.34410815934E+01 -0.12359109854E+02  0.19883865208E+02  0.51100000000E-03 0. -1.
        -11    1    3    3    0    0  0.49163424205E+00 -0.90995890384E+01 -0.59022017321E+01  0.10857265330E+02  0.51100000000E-03 0.  1.
         12    1    3    3    0    0  0.20732984531E+01 -0.16347196042E+02 -0.10955578632E+02  0.19787725692E+02  0.00000000000E+00 0. -1.
</event>
<event>
 7    1  0.5972636E-013  0.5052886E+02  0.7816164E-02  0.1300439E+00
        -11   -1    0    0    0    0  0.00000000000E+00  0.00000000000E+00  0.45593999997E+02  0.45594000000E+02  0.51100000000E-03 0.  1.
         11   -1    0    0    0    0 -0.00000000000E+00 -0.00000000000E+00 -0.45593999997E+02  0.45594000000E+02  0.51100000000E-03 0. -1.
    9900012    2    1    2    0    0 -0.24796689275E+02 -0.14427174583E+02  0.28812256940E+02  0.50528864305E+02  0.30000013542E+02 0.  0.
         12    1    1    2    0    0  0.24796689275E+02  0.14427174583E+02 -0.28812256940E+02  0.40659135695E+02  0.00000000000E+00 0. -1.
         11    1    3    3    0    0 -0.15192549763E+02  0.56778610754E+01  0.35085410437E+01  0.16594021068E+02  0.51100000000E-03 0. -1.
        -11    1    3    3    0    0 -0.51935468667E+01 -0.84790128210E+01  0.88517249771E+01  0.13312386067E+02  0.51100000000E-03 0.  1.
         12    1    3    3    0    0 -0.44105926456E+01 -0.11626022838E+02  0.16451990919E+02  0.20622457170E+02  0.00000000000E+00 0. -1.
</event>
<event>
 7    1  0.5972636E-013  0.5052886E+02  0.7816164E-02  0.1300439E+00
        -11   -1    0    0    0    0  0.00000000000E+00  0.00000000000E+00  0.45593999997E+02  0.45594000000E+02  0.51100000000E-03 0.  1.
         11   -1    0    0    0    0 -0.00000000000E+00 -0.00000000000E+00 -0.45593999997E+02  0.45594000000E+02  0.51100000000E-03 0. -1.
    9900012    2    1    2    0    0  0.13936446023E+02 -0.10959773079E+02  0.36589948515E+02  0.50528862208E+02  0.30000007166E+02 0.  0.
         12    1    1    2    0    0 -0.13936446023E+02  0.10959773079E+02 -0.36589948515E+02  0.40659137792E+02  0.00000000000E+00 0. -1.
         11    1    3    3    0    0  0.47501892965E+01 -0.16744370925E+02  0.32129937657E+02  0.36541362182E+02  0.51100000000E-03 0. -1.
        -11    1    3    3    0    0  0.86887765437E+01  0.27688118520E+01  0.56271650668E+01  0.10715696144E+02  0.51100000000E-03 0.  1.
         12    1    3    3    0    0  0.49748018318E+00  0.30157859937E+01 -0.11671542089E+01  0.32718038816E+01  0.00000000000E+00 0. -1.
</event>
<event>
 7    1  0.5972636E-013  0.5052886E+02  0.7816164E-02  0.1300439E+00
        -11   -1    0    0    0    0  0.00000000000E+00  0.00000000000E+00  0.45593999997E+02  0.45594000000E+02  0.51100000000E-03 0. -1.
         11   -1    0    0    0    0 -0.00000000000E+00 -0.00000000000E+00 -0.45593999997E+02  0.45594000000E+02  0.51100000000E-03 0.  1.
    9900012    2    1    2    0    0 -0.17855149167E+02  0.31786148852E+02  0.17999996779E+02  0.50528862102E+02  0.30000006844E+02 0.  0.
         12    1    1    2    0    0  0.17855149167E+02 -0.31786148852E+02 -0.17999996779E+02  0.40659137898E+02  0.00000000000E+00 0. -1.
         11    1    3    3    0    0 -0.21338818722E+02  0.15054182808E+02  0.84986681115E+01  0.27462719538E+02  0.51100000000E-03 0. -1.
        -11    1    3    3    0    0  0.20922337741E+00  0.15937943378E+02  0.37090453183E+01  0.16365171279E+02  0.51100000000E-03 0.  1.
         12    1    3    3    0    0  0.32744461781E+01  0.79402266534E+00  0.57922833495E+01  0.67009712853E+01  0.00000000000E+00 0. -1.
</event>
<event>
 7    1  0.5972636E-013  0.5052886E+02  0.7816164E-02  0.1300439E+00
        -11   -1    0    0    0    0  0.00000000000E+00  0.00000000000E+00  0.45593999997E+02  0.45594000000E+02  0.51100000000E-03 0. -1.
         11   -1    0    0    0    0 -0.00000000000E+00 -0.00000000000E+00 -0.45593999997E+02  0.45594000000E+02  0.51100000000E-03 0.  1.
    9900012    2    1    2    0    0 -0.30457208804E+02 -0.20833269670E+02 -0.17073329260E+02  0.50528864922E+02  0.30000015418E+02 0.  0.
         12    1    1    2    0    0  0.30457208804E+02  0.20833269670E+02  0.17073329260E+02  0.40659135078E+02  0.00000000000E+00 0. -1.
         11    1    3    3    0    0 -0.10115032103E+02 -0.15119712227E+02  0.45737799690E+01  0.18757372837E+02  0.51100000000E-03 0. -1.
        -11    1    3    3    0    0 -0.11239497514E+02  0.18872543819E+01 -0.10659155404E+02  0.15604666855E+02  0.51100000000E-03 0.  1.
         12    1    3    3    0    0 -0.91026791861E+01 -0.76008118254E+01 -0.10987953825E+02  0.16166825230E+02  0.00000000000E+00 0. -1.
</event>
<event>
 7    1  0.5972636E-013  0.5052886E+02  0.7816164E-02  0.1300439E+00
        -11   -1    0    0    0    0  0.00000000000E+00  0.00000000000E+00  0.45593999997E+02  0.45594000000E+02  0.51100000000E-03 0. -1.
         11   -1    0    0    0    0 -0.00000000000E+00 -0.00000000000E+00 -0.45593999997E+02  0.45594000000E+02  0.51100000000E-03 0.  1.
    9900012    2    1    2    0    0 -0.29623262236E+02  0.26892851829E+02  0.72389534963E+01  0.50528860895E+02  0.30000003177E+02 0.  0.
         12    1    1    2    0    0  0.29623262236E+02 -0.26892851829E+02 -0.72389534963E+01  0.40659139105E+02  0.00000000000E+00 0. -1.
         11    1    3    3    0    0 -0.22107625725E+02  0.12020414799E+02  0.16035525277E+02  0.29839161488E+02  0.51100000000E-03 0. -1.
        -11    1    3    3    0    0 -0.65556399501E+01  0.95354908782E+01 -0.98135023270E+01  0.15172568327E+02  0.51100000000E-03 0.  1.
         12    1    3    3    0    0 -0.95999656102E+00  0.53369461520E+01  0.10169305464E+01  0.55171310808E+01  0.00000000000E+00 0. -1.
</event>
<event>
 7    1  0.5972636E-013  0.5052885E+02  0.7816164E-02  0.1300439E+00
        -11   -1    0    0    0    0  0.00000000000E+00  0.00000000000E+00  0.45593999997E+02  0.45594000000E+02  0.51100000000E-03 0.  1.
         11   -1    0    0    0    0 -0.00000000000E+00 -0.00000000000E+00 -0.45593999997E+02  0.45594000000E+02  0.51100000000E-03 0. -1.
    9900012    2    1    2    0    0 -0.69820842862E+01  0.36096407706E+02  0.17362784923E+02  0.50528850346E+02  0.29999971112E+02 0.  0.
         12    1    1    2    0    0  0.69820842862E+01 -0.36096407706E+02 -0.17362784923E+02  0.40659149654E+02  0.00000000000E+00 0. -1.
         11    1    3    3    0    0 -0.84826379889E+01  0.30804289479E+02 -0.26761274580E+00  0.31952011116E+02  0.51100000000E-03 0. -1.
        -11    1    3    3    0    0  0.51434348088E+00  0.43045196596E+01  0.14786908117E+02  0.15409285858E+02  0.51100000000E-03 0.  1.
         12    1    3    3    0    0  0.98621022182E+00  0.98759856808E+00  0.28434895519E+01  0.31675533721E+01  0.00000000000E+00 0. -1.
</event>
<event>
 7    1  0.5972636E-013  0.5052886E+02  0.7816164E-02  0.1300439E+00
        -11   -1    0    0    0    0  0.00000000000E+00  0.00000000000E+00  0.45593999997E+02  0.45594000000E+02  0.51100000000E-03 0. -1.
         11   -1    0    0    0    0 -0.00000000000E+00 -0.00000000000E+00 -0.45593999997E+02  0.45594000000E+02  0.51100000000E-03 0.  1.
    9900012    2    1    2    0    0  0.15326128819E+02 -0.32537634063E+02 -0.18962531408E+02  0.50528862621E+02  0.30000008422E+02 0.  0.
         12    1    1    2    0    0 -0.15326128819E+02  0.32537634063E+02  0.18962531408E+02  0.40659137379E+02  0.00000000000E+00 0. -1.
         11    1    3    3    0    0 -0.11414921161E+01 -0.71191390025E+01  0.44360424591E+01  0.84654366307E+01  0.51100000000E-03 0. -1.
        -11    1    3    3    0    0  0.16284475969E+02 -0.27756800825E+02 -0.23272828690E+02  0.39714590582E+02  0.51100000000E-03 0.  1.
         12    1    3    3    0    0  0.18314496678E+00  0.23383057640E+01 -0.12574517725E+00  0.23488354081E+01  0.00000000000E+00 0. -1.
</event>
<event>
 7    1  0.5972636E-013  0.5052887E+02  0.7816164E-02  0.1300439E+00
        -11   -1    0    0    0    0  0.00000000000E+00  0.00000000000E+00  0.45593999997E+02  0.45594000000E+02  0.51100000000E-03 0. -1.
         11   -1    0    0    0    0 -0.00000000000E+00 -0.00000000000E+00 -0.45593999997E+02  0.45594000000E+02  0.51100000000E-03 0.  1.
    9900012    2    1    2    0    0  0.35382397957E+02 -0.75800187775E+01 -0.18541685899E+02  0.50528869589E+02  0.30000029602E+02 0.  0.
         12    1    1    2    0    0 -0.35382397957E+02  0.75800187775E+01  0.18541685899E+02  0.40659130411E+02  0.00000000000E+00 0. -1.
         11    1    3    3    0    0  0.74331141070E+01 -0.13983750537E+02 -0.93059117266E+01  0.18368354791E+02  0.51100000000E-03 0. -1.
        -11    1    3    3    0    0  0.27088875813E+02  0.78403079000E+01 -0.10468673179E+02  0.30081069449E+02  0.51100000000E-03 0.  1.
        -12    1    3    3    0    0  0.86040803659E+00 -0.14365761401E+01  0.12328990073E+01  0.20794453486E+01  0.00000000000E+00 0.  1.
</event>
<event>
 7    1  0.5972636E-013  0.5052887E+02  0.7816164E-02  0.1300439E+00
        -11   -1    0    0    0    0  0.00000000000E+00  0.00000000000E+00  0.45593999997E+02  0.45594000000E+02  0.51100000000E-03 0.  1.
         11   -1    0    0    0    0 -0.00000000000E+00 -0.00000000000E+00 -0.45593999997E+02  0.45594000000E+02  0.51100000000E-03 0. -1.
    9900012    2    1    2    0    0 -0.14168223996E+01  0.36554696330E+02  0.17745746341E+02  0.50528871594E+02  0.30000035698E+02 0.  0.
         12    1    1    2    0    0  0.14168223996E+01 -0.36554696330E+02 -0.17745746341E+02  0.40659128406E+02  0.00000000000E+00 0. -1.
         11    1    3    3    0    0  0.12115999402E+01 -0.29816011914E+01  0.26906607318E+01  0.41949464257E+01  0.51100000000E-03 0. -1.
        -11    1    3    3    0    0  0.16762027403E+01  0.34881129272E+02  0.18062881742E+02  0.39316288380E+02  0.51100000000E-03 0.  1.
         12    1    3    3    0    0 -0.43046250801E+01  0.46551682497E+01 -0.30077961329E+01  0.70176367882E+01  0.00000000000E+00 0. -1.
</event>
<event>
 7    1  0.5972636E-013  0.5052887E+02  0.7816164E-02  0.1300439E+00
        -11   -1    0    0    0    0  0.00000000000E+00  0.00000000000E+00  0.45593999997E+02  0.45594000000E+02  0.51100000000E-03 0. -1.
         11   -1    0    0    0    0 -0.00000000000E+00 -0.00000000000E+00 -0.45593999997E+02  0.45594000000E+02  0.51100000000E-03 0.  1.
    9900012    2    1    2    0    0  0.88338278793E+01  0.37404513609E+02 -0.13267667310E+02  0.50528866349E+02  0.30000019756E+02 0.  0.
         12    1    1    2    0    0 -0.88338278793E+01 -0.37404513609E+02  0.13267667310E+02  0.40659133651E+02  0.00000000000E+00 0. -1.
         11    1    3    3    0    0  0.78340179732E+01  0.30808850309E+02 -0.15820604059E+01  0.31828603651E+02  0.51100000000E-03 0. -1.
        -11    1    3    3    0    0  0.54394644344E+01  0.81232818166E+01 -0.66996271967E+01  0.11851602661E+02  0.51100000000E-03 0.  1.
         12    1    3    3    0    0 -0.44396545284E+01 -0.15276185162E+01 -0.49859797079E+01  0.68486600375E+01  0.00000000000E+00 0. -1.
</event>
<event>
 7    1  0.5972636E-013  0.5052887E+02  0.7816164E-02  0.1300439E+00
        -11   -1    0    0    0    0  0.00000000000E+00  0.00000000000E+00  0.45593999997E+02  0.45594000000E+02  0.51100000000E-03 0.  1.
         11   -1    0    0    0    0 -0.00000000000E+00 -0.00000000000E+00 -0.45593999997E+02  0.45594000000E+02  0.51100000000E-03 0. -1.
    9900012    2    1    2    0    0 -0.29978237559E+02  0.23224156261E+02  0.14666589542E+02  0.50528868062E+02  0.30000024961E+02 0.  0.
         12    1    1    2    0    0  0.29978237559E+02 -0.23224156261E+02 -0.14666589542E+02  0.40659131938E+02  0.00000000000E+00 0. -1.
         11    1    3    3    0    0 -0.67348903329E+01  0.22444321754E+02  0.65054628268E+01  0.24319279875E+02  0.51100000000E-03 0. -1.
        -11    1    3    3    0    0 -0.83071557206E+01 -0.17110345153E+01  0.70454144119E+01  0.11026075448E+02  0.51100000000E-03 0.  1.
         12    1    3    3    0    0 -0.14936191505E+02  0.24908690224E+01  0.11157123036E+01  0.15183512740E+02  0.00000000000E+00 0. -1.
</event>
<event>
 7    1  0.5972636E-013  0.5052885E+02  0.7816164E-02  0.1300439E+00
        -11   -1    0    0    0    0  0.00000000000E+00  0.00000000000E+00  0.45593999997E+02  0.45594000000E+02  0.51100000000E-03 0. -1.
         11   -1    0    0    0    0 -0.00000000000E+00 -0.00000000000E+00 -0.45593999997E+02  0.45594000000E+02  0.51100000000E-03 0.  1.
    9900012    2    1    2    0    0  0.31809807931E+02 -0.13969036403E+02 -0.21122694672E+02  0.50528854794E+02  0.29999984632E+02 0.  0.
         12    1    1    2    0    0 -0.31809807931E+02  0.13969036403E+02  0.21122694672E+02  0.40659145206E+02  0.00000000000E+00 0. -1.
         11    1    3    3    0    0  0.55075712396E+01  0.60205106895E+01  0.15313957212E+01  0.83021119625E+01  0.51100000000E-03 0. -1.
        -11    1    3    3    0    0  0.20478704939E+02 -0.13198441864E+02 -0.22672098012E+02  0.33280628782E+02  0.51100000000E-03 0.  1.
         12    1    3    3    0    0  0.58235317528E+01 -0.67911052293E+01  0.18007618592E-01  0.89461140495E+01  0.00000000000E+00 0. -1.
</event>
<event>
 7    1  0.5972636E-013  0.5052885E+02  0.7816164E-02  0.1300439E+00
        -11   -1    0    0    0    0  0.00000000000E+00  0.00000000000E+00  0.45593999997E+02  0.45594000000E+02  0.51100000000E-03 0.  1.
         11   -1    0    0    0    0 -0.00000000000E+00 -0.00000000000E+00 -0.45593999997E+02  0.45594000000E+02  0.51100000000E-03 0. -1.
    9900012    2    1    2    0    0  0.76141786085E+01 -0.31321290608E+02  0.24782402398E+02  0.50528850601E+02  0.29999971887E+02 0.  0.
         12    1    1    2    0    0 -0.76141786085E+01  0.31321290608E+02 -0.24782402398E+02  0.40659149399E+02  0.00000000000E+00 0. -1.
         11    1    3    3    0    0  0.54138567378E+00  0.19696703929E+01  0.22789678176E+01  0.30604565802E+01  0.51100000000E-03 0. -1.
        -11    1    3    3    0    0 -0.19353128305E+01 -0.32010109405E+02  0.13918156709E+02  0.34958655957E+02  0.51100000000E-03 0.  1.
        -12    1    3    3    0    0  0.90081057652E+01 -0.12808515954E+01  0.85852778718E+01  0.12509738064E+02  0.00000000000E+00 0.  1.
</event>
<event>
 7    1  0.5972636E-013  0.5052886E+02  0.7816164E-02  0.1300439E+00
        -11   -1    0    0    0    0  0.00000000000E+00  0.00000000000E+00  0.45593999997E+02  0.45594000000E+02  0.51100000000E-03 0.  1.
         11   -1    0    0    0    0 -0.00000000000E+00 -0.00000000000E+00 -0.45593999997E+02  0.45594000000E+02  0.51100000000E-03 0. -1.
    9900012    2    1    2    0    0 -0.18039291317E+02  0.34315492465E+02  0.12255481866E+02  0.50528857239E+02  0.29999992062E+02 0.  0.
         12    1    1    2    0    0  0.18039291317E+02 -0.34315492465E+02 -0.12255481866E+02  0.40659142761E+02  0.00000000000E+00 0. -1.
         11    1    3    3    0    0 -0.35658717936E+01 -0.14263452019E-01  0.20153625832E+01  0.40960141232E+01  0.51100000000E-03 0. -1.
        -11    1    3    3    0    0  0.32547041450E+01  0.16706316020E+02  0.12811846438E+02  0.21303462240E+02  0.51100000000E-03 0.  1.
        -12    1    3    3    0    0 -0.17728123668E+02  0.17623439897E+02 -0.25717271546E+01  0.25129380875E+02  0.00000000000E+00 0.  1.
</event>
<event>
 7    1  0.5972636E-013  0.5052887E+02  0.7816164E-02  0.1300439E+00
        -11   -1    0    0    0    0  0.00000000000E+00  0.00000000000E+00  0.45593999997E+02  0.45594000000E+02  0.51100000000E-03 0. -1.
         11   -1    0    0    0    0 -0.00000000000E+00 -0.00000000000E+00 -0.45593999997E+02  0.45594000000E+02  0.51100000000E-03 0.  1.
    9900012    2    1    2    0    0  0.23819413799E+00  0.38666392500E+02 -0.12570542800E+02  0.50528865827E+02  0.30000018169E+02 0.  0.
         12    1    1    2    0    0 -0.23819413799E+00 -0.38666392500E+02  0.12570542800E+02  0.40659134173E+02  0.00000000000E+00 0. -1.
         11    1    3    3    0    0 -0.20878439540E+01  0.10072755001E+01  0.89724258879E+00  0.24857073105E+01  0.51100000000E-03 0. -1.
        -11    1    3    3    0    0  0.13550738714E+02  0.28547503626E+02 -0.81049689094E+01  0.32623197333E+02  0.51100000000E-03 0.  1.
        -12    1    3    3    0    0 -0.11224700622E+02  0.91116133740E+01 -0.53628164795E+01  0.15419961184E+02  0.00000000000E+00 0.  1.
</event>
<event>
 7    1  0.5972636E-013  0.5052888E+02  0.7816164E-02  0.1300439E+00
        -11   -1    0    0    0    0  0.00000000000E+00  0.00000000000E+00  0.45593999997E+02  0.45594000000E+02  0.51100000000E-03 0.  1.
         11   -1    0    0    0    0 -0.00000000000E+00 -0.00000000000E+00 -0.45593999997E+02  0.45594000000E+02  0.51100000000E-03 0. -1.
    9900012    2    1    2    0    0  0.13821704761E+02 -0.31522663243E+01  0.38107583468E+02  0.50528877737E+02  0.30000054368E+02 0.  0.
         12    1    1    2    0    0 -0.13821704761E+02  0.31522663243E+01 -0.38107583468E+02  0.40659122263E+02  0.00000000000E+00 0. -1.
         11    1    3    3    0    0 -0.75295706686E+01 -0.61562761197E-01  0.26127655484E+01  0.79702426876E+01  0.51100000000E-03 0. -1.
        -11    1    3    3    0    0  0.16926585304E+02 -0.56923660953E+01  0.30798930855E+02  0.35601776134E+02  0.51100000000E-03 0.  1.
         12    1    3    3    0    0  0.44246901263E+01  0.26016625322E+01  0.46958870645E+01  0.69568589153E+01  0.00000000000E+00 0. -1.
</event>
<event>
 7    1  0.5972636E-013  0.5052886E+02  0.7816164E-02  0.1300439E+00
        -11   -1    0    0    0    0  0.00000000000E+00  0.00000000000E+00  0.45593999997E+02  0.45594000000E+02  0.51100000000E-03 0.  1.
         11   -1    0    0    0    0 -0.00000000000E+00 -0.00000000000E+00 -0.45593999997E+02  0.45594000000E+02  0.51100000000E-03 0. -1.
    9900012    2    1    2    0    0 -0.31884261370E+02  0.20337940020E+01  0.25148029019E+02  0.50528858289E+02  0.29999995254E+02 0.  0.
         12    1    1    2    0    0  0.31884261370E+02 -0.20337940020E+01 -0.25148029019E+02  0.40659141711E+02  0.00000000000E+00 0. -1.
         11    1    3    3    0    0 -0.12346456221E+02 -0.77599692689E+01  0.15765506524E+02  0.21475644355E+02  0.51100000000E-03 0. -1.
        -11    1    3    3    0    0 -0.11487579793E+02  0.38228961371E+01 -0.36195070385E+01  0.12636449495E+02  0.51100000000E-03 0.  1.
        -12    1    3    3    0    0 -0.80502253560E+01  0.59708671337E+01  0.13002029534E+02  0.16416764438E+02  0.00000000000E+00 0.  1.
</event>
<event>
 7    1  0.5972636E-013  0.5052885E+02  0.7816164E-02  0.1300439E+00
        -11   -1    0    0    0    0  0.00000000000E+00  0.00000000000E+00  0.45593999997E+02  0.45594000000E+02  0.51100000000E-03 0. -1.
         11   -1    0    0    0    0 -0.00000000000E+00 -0.00000000000E+00 -0.45593999997E+02  0.45594000000E+02  0.51100000000E-03 0.  1.
    9900012    2    1    2    0    0 -0.31635844217E+02 -0.21421980644E+02  0.13908215073E+02  0.50528851699E+02  0.29999975225E+02 0.  0.
         12    1    1    2    0    0  0.31635844217E+02  0.21421980644E+02 -0.13908215073E+02  0.40659148301E+02  0.00000000000E+00 0. -1.
         11    1    3    3    0    0 -0.12106853114E+02 -0.31092569613E+01  0.14667733571E+02  0.19271372021E+02  0.51100000000E-03 0. -1.
        -11    1    3    3    0    0 -0.21070709569E+02 -0.19865494141E+02 -0.13525993976E+01  0.28990380898E+02  0.51100000000E-03 0.  1.
        -12    1    3    3    0    0  0.15417184669E+01  0.15527704581E+01  0.59308089936E+00  0.22670987804E+01  0.00000000000E+00 0.  1.
</event>
<event>
 7    1  0.5972636E-013  0.5052887E+02  0.7816164E-02  0.1300439E+00
        -11   -1    0    0    0    0  0.00000000000E+00  0.00000000000E+00  0.45593999997E+02  0.45594000000E+02  0.51100000000E-03 0. -1.
         11   -1    0    0    0    0 -0.00000000000E+00 -0.00000000000E+00 -0.45593999997E+02  0.45594000000E+02  0.51100000000E-03 0.  1.
    9900012    2    1    2    0    0  0.25473410593E+02  0.29854479327E+02 -0.10629204035E+02  0.50528873576E+02  0.30000041722E+02 0.  0.
         12    1    1    2    0    0 -0.25473410593E+02 -0.29854479327E+02  0.10629204035E+02  0.40659126424E+02  0.00000000000E+00 0. -1.
         11    1    3    3    0    0  0.86773506336E+01  0.65737598795E+00 -0.48097467118E+01  0.99429483002E+01  0.51100000000E-03 0. -1.
        -11    1    3    3    0    0 -0.28447128124E+01  0.13751078600E+02  0.24744470190E+01  0.14258591864E+02  0.51100000000E-03 0.  1.
        -12    1    3    3    0    0  0.19640772771E+02  0.15446024740E+02 -0.82939043425E+01  0.26327333412E+02  0.00000000000E+00 0.  1.
</event>
<event>
 7    1  0.5972636E-013  0.5052887E+02  0.7816164E-02  0.1300439E+00
        -11   -1    0    0    0    0  0.00000000000E+00  0.00000000000E+00  0.45593999997E+02  0.45594000000E+02  0.51100000000E-03 0. -1.
         11   -1    0    0    0    0 -0.00000000000E+00 -0.00000000000E+00 -0.45593999997E+02  0.45594000000E+02  0.51100000000E-03 0.  1.
    9900012    2    1    2    0    0  0.81164632581E+01 -0.39043099641E+02 -0.79325053778E+01  0.50528865147E+02  0.30000016101E+02 0.  0.
         12    1    1    2    0    0 -0.81164632581E+01  0.39043099641E+02  0.79325053778E+01  0.40659134853E+02  0.00000000000E+00 0. -1.
         11    1    3    3    0    0 -0.38875314202E+01 -0.11031739025E+02  0.38282921786E+01  0.12307233147E+02  0.51100000000E-03 0. -1.
        -11    1    3    3    0    0  0.16641779506E+01 -0.20544129144E+01 -0.98691013063E+01  0.10217106319E+02  0.51100000000E-03 0.  1.
        -12    1    3    3    0    0  0.10339816728E+02 -0.25956947702E+02 -0.18916962502E+01  0.28004525681E+02  0.00000000000E+00 0.  1.
</event>
<event>
 7    1  0.5972636E-013  0.5052886E+02  0.7816164E-02  0.1300439E+00
        -11   -1    0    0    0    0  0.00000000000E+00  0.00000000000E+00  0.45593999997E+02  0.45594000000E+02  0.51100000000E-03 0.  1.
         11   -1    0    0    0    0 -0.00000000000E+00 -0.00000000000E+00 -0.45593999997E+02  0.45594000000E+02  0.51100000000E-03 0. -1.
    9900012    2    1    2    0    0 -0.54581175497E+01  0.40285530782E+02 -0.67156224407E+00  0.50528855476E+02  0.29999986705E+02 0.  0.
         12    1    1    2    0    0  0.54581175497E+01 -0.40285530782E+02  0.67156224407E+00  0.40659144524E+02  0.00000000000E+00 0. -1.
         11    1    3    3    0    0 -0.64319229793E+01  0.29087512558E+01 -0.39808078955E+01  0.81041531847E+01  0.51100000000E-03 0. -1.
        -11    1    3    3    0    0  0.88483876306E+01  0.30767622949E+02  0.25583881340E+01  0.32116754750E+02  0.51100000000E-03 0.  1.
        -12    1    3    3    0    0 -0.78745822010E+01  0.66091565775E+01  0.75085751752E+00  0.10307947542E+02  0.00000000000E+00 0.  1.
</event>
<event>
 7    1  0.5972636E-013  0.5052886E+02  0.7816164E-02  0.1300439E+00
        -11   -1    0    0    0    0  0.00000000000E+00  0.00000000000E+00  0.45593999997E+02  0.45594000000E+02  0.51100000000E-03 0.  1.
         11   -1    0    0    0    0 -0.00000000000E+00 -0.00000000000E+00 -0.45593999997E+02  0.45594000000E+02  0.51100000000E-03 0. -1.
    9900012    2    1    2    0    0  0.32957644063E+02  0.51195299544E+01  0.23254032041E+02  0.50528857175E+02  0.29999991868E+02 0.  0.
         12    1    1    2    0    0 -0.32957644063E+02 -0.51195299544E+01 -0.23254032041E+02  0.40659142825E+02  0.00000000000E+00 0. -1.
         11    1    3    3    0    0  0.40521580061E+01 -0.35085243830E+01  0.14336202686E+02  0.15305438105E+02  0.51100000000E-03 0. -1.
        -11    1    3    3    0    0  0.17677574091E+02  0.10418462306E+02 -0.40018064978E+00  0.20523185118E+02  0.51100000000E-03 0.  1.
        -12    1    3    3    0    0  0.11227911966E+02 -0.17904079683E+01  0.93180100044E+01  0.14700233952E+02  0.00000000000E+00 0.  1.
</event>
<event>
 7    1  0.5972636E-013  0.5052886E+02  0.7816164E-02  0.1300439E+00
        -11   -1    0    0    0    0  0.00000000000E+00  0.00000000000E+00  0.45593999997E+02  0.45594000000E+02  0.51100000000E-03 0.  1.
         11   -1    0    0    0    0 -0.00000000000E+00 -0.00000000000E+00 -0.45593999997E+02  0.45594000000E+02  0.51100000000E-03 0. -1.
    9900012    2    1    2    0    0 -0.38402186192E+02  0.10508317946E+01  0.13316669082E+02  0.50528858011E+02  0.29999994411E+02 0.  0.
         12    1    1    2    0    0  0.38402186192E+02 -0.10508317946E+01 -0.13316669082E+02  0.40659141989E+02  0.00000000000E+00 0. -1.
         11    1    3    3    0    0  0.32012396275E+01  0.20681313091E+01 -0.28538001489E+01  0.47612265032E+01  0.51100000000E-03 0. -1.
        -11    1    3    3    0    0 -0.28124048347E+02 -0.34036325557E+01  0.66670472126E+01  0.29103201350E+02  0.51100000000E-03 0.  1.
        -12    1    3    3    0    0 -0.13479377472E+02  0.23863330412E+01  0.95034220184E+01  0.16664430158E+02  0.00000000000E+00 0.  1.
</event>
<event>
 7    1  0.5972636E-013  0.5052885E+02  0.7816164E-02  0.1300439E+00
        -11   -1    0    0    0    0  0.00000000000E+00  0.00000000000E+00  0.45593999997E+02  0.45594000000E+02  0.51100000000E-03 0.  1.
         11   -1    0    0    0    0 -0.00000000000E+00 -0.00000000000E+00 -0.45593999997E+02  0.45594000000E+02  0.51100000000E-03 0. -1.
    9900012    2    1    2    0    0  0.25134512955E+01 -0.40156422825E+02 -0.58575032200E+01  0.50528854958E+02  0.29999985131E+02 0.  0.
         12    1    1    2    0    0 -0.25134512955E+01  0.40156422825E+02  0.58575032200E+01  0.40659145042E+02  0.00000000000E+00 0. -1.
         11    1    3    3    0    0  0.46766486746E+01  0.19422579248E+01  0.16859912858E+01  0.53372254541E+01  0.51100000000E-03 0. -1.
        -11    1    3    3    0    0 -0.30218236454E+01 -0.42021887580E+02 -0.93808047952E+01  0.43162135637E+02  0.51100000000E-03 0.  1.
        -12    1    3    3    0    0  0.85862626633E+00 -0.76793170510E-01  0.18373102895E+01  0.20294938670E+01  0.00000000000E+00 0.  1.
</event>
<event>
 7    1  0.5972636E-013  0.5052886E+02  0.7816164E-02  0.1300439E+00
        -11   -1    0    0    0    0  0.00000000000E+00  0.00000000000E+00  0.45593999997E+02  0.45594000000E+02  0.51100000000E-03 0.  1.
         11   -1    0    0    0    0 -0.00000000000E+00 -0.00000000000E+00 -0.45593999997E+02  0.45594000000E+02  0.51100000000E-03 0. -1.
    9900012    2    1    2    0    0  0.16214096156E+02  0.83548339802E+01  0.36338213748E+02  0.50528856584E+02  0.29999990072E+02 0.  0.
         12    1    1    2    0    0 -0.16214096156E+02 -0.83548339802E+01 -0.36338213748E+02  0.40659143416E+02  0.00000000000E+00 0. -1.
         11    1    3    3    0    0  0.69516519783E+01 -0.54779100677E+01  0.23447122796E+02  0.25061933916E+02  0.51100000000E-03 0. -1.
        -11    1    3    3    0    0  0.10024870989E+02  0.58477901991E+01  0.17474681244E+01  0.11736623606E+02  0.51100000000E-03 0.  1.
         12    1    3    3    0    0 -0.76242681156E+00  0.79849538488E+01  0.11143622828E+02  0.13730299062E+02  0.00000000000E+00 0. -1.
</event>
<event>
 7    1  0.5972636E-013  0.5052888E+02  0.7816164E-02  0.1300439E+00
        -11   -1    0    0    0    0  0.00000000000E+00  0.00000000000E+00  0.45593999997E+02  0.45594000000E+02  0.51100000000E-03 0. -1.
         11   -1    0    0    0    0 -0.00000000000E+00 -0.00000000000E+00 -0.45593999997E+02  0.45594000000E+02  0.51100000000E-03 0.  1.
    9900012    2    1    2    0    0  0.34840211020E+02 -0.20876001963E+02  0.18752321635E+01  0.50528877315E+02  0.30000053086E+02 0.  0.
         12    1    1    2    0    0 -0.34840211020E+02  0.20876001963E+02 -0.18752321635E+01  0.40659122685E+02  0.00000000000E+00 0. -1.
         11    1    3    3    0    0 -0.15396571157E+01 -0.37934072785E+01 -0.40857098697E+01  0.57839007784E+01  0.51100000000E-03 0. -1.
        -11    1    3    3    0    0  0.19225411612E+02  0.12148229386E+01  0.27456747052E+01  0.19458442288E+02  0.51100000000E-03 0.  1.
        -12    1    3    3    0    0  0.17154456523E+02 -0.18297417623E+02  0.32152673279E+01  0.25286534248E+02  0.00000000000E+00 0.  1.
</event>
<event>
 7    1  0.5972636E-013  0.5052884E+02  0.7816164E-02  0.1300439E+00
        -11   -1    0    0    0    0  0.00000000000E+00  0.00000000000E+00  0.45593999997E+02  0.45594000000E+02  0.51100000000E-03 0. -1.
         11   -1    0    0    0    0 -0.00000000000E+00 -0.00000000000E+00 -0.45593999997E+02  0.45594000000E+02  0.51100000000E-03 0.  1.
    9900012    2    1    2    0    0  0.13141688961E+01  0.12626028581E+02 -0.38626721129E+02  0.50528840850E+02  0.29999942249E+02 0.  0.
         12    1    1    2    0    0 -0.13141688961E+01 -0.12626028581E+02  0.38626721129E+02  0.40659159150E+02  0.00000000000E+00 0. -1.
         11    1    3    3    0    0  0.66887593441E+01 -0.33696592956E+01  0.24762113862E-02  0.74896002379E+01  0.51100000000E-03 0. -1.
        -11    1    3    3    0    0 -0.74988665764E+01  0.12211344391E+02 -0.32600452574E+02  0.35610945510E+02  0.51100000000E-03 0.  1.
        -12    1    3    3    0    0  0.21242761284E+01  0.37843434858E+01 -0.60287447654E+01  0.74282951029E+01  0.00000000000E+00 0.  1.
</event>
<event>
 7    1  0.5972636E-013  0.5052885E+02  0.7816164E-02  0.1300439E+00
        -11   -1    0    0    0    0  0.00000000000E+00  0.00000000000E+00  0.45593999997E+02  0.45594000000E+02  0.51100000000E-03 0. -1.
         11   -1    0    0    0    0 -0.00000000000E+00 -0.00000000000E+00 -0.45593999997E+02  0.45594000000E+02  0.51100000000E-03 0.  1.
    9900012    2    1    2    0    0  0.21051831651E+02 -0.31297885565E+02 -0.15179897203E+02  0.50528849298E+02  0.29999967927E+02 0.  0.
         12    1    1    2    0    0 -0.21051831651E+02  0.31297885565E+02  0.15179897203E+02  0.40659150702E+02  0.00000000000E+00 0. -1.
         11    1    3    3    0    0  0.10427880339E+02 -0.11361080271E+02  0.57293944278E+01  0.16451163912E+02  0.51100000000E-03 0. -1.
        -11    1    3    3    0    0  0.92608460102E+01 -0.66623430958E+01 -0.16428652964E+02  0.20001268030E+02  0.51100000000E-03 0.  1.
        -12    1    3    3    0    0  0.13631053014E+01 -0.13274462198E+02 -0.44806386674E+01  0.14076417356E+02  0.00000000000E+00 0.  1.
</event>
<event>
 7    1  0.5972636E-013  0.5052886E+02  0.7816164E-02  0.1300439E+00
        -11   -1    0    0    0    0  0.00000000000E+00  0.00000000000E+00  0.45593999997E+02  0.45594000000E+02  0.51100000000E-03 0. -1.
         11   -1    0    0    0    0 -0.00000000000E+00 -0.00000000000E+00 -0.45593999997E+02  0.45594000000E+02  0.51100000000E-03 0.  1.
    9900012    2    1    2    0    0  0.30536556878E+02  0.10694773534E+02 -0.24623284027E+02  0.50528860767E+02  0.30000002787E+02 0.  0.
         12    1    1    2    0    0 -0.30536556878E+02 -0.10694773534E+02  0.24623284027E+02  0.40659139233E+02  0.00000000000E+00 0. -1.
         11    1    3    3    0    0  0.16150346611E+02  0.25006547326E+01 -0.27481254143E+02  0.31973524974E+02  0.51100000000E-03 0. -1.
        -11    1    3    3    0    0  0.25805217154E+01 -0.26330247122E+00  0.30856380419E+01  0.40310771391E+01  0.51100000000E-03 0.  1.
         12    1    3    3    0    0  0.11805688552E+02  0.84574212722E+01 -0.22766792607E+00  0.14524258654E+02  0.00000000000E+00 0. -1.
</event>
<event>
 7    1  0.5972636E-013  0.5052886E+02  0.7816164E-02  0.1300439E+00
        -11   -1    0    0    0    0  0.00000000000E+00  0.00000000000E+00  0.45593999997E+02  0.45594000000E+02  0.51100000000E-03 0.  1.
         11   -1    0    0    0    0 -0.00000000000E+00 -0.00000000000E+00 -0.45593999997E+02  0.45594000000E+02  0.51100000000E-03 0. -1.
    9900012    2    1    2    0    0 -0.11733443751E+01  0.40293402318E+02  0.53132626781E+01  0.50528858744E+02  0.29999996637E+02 0.  0.
         12    1    1    2    0    0  0.11733443751E+01 -0.40293402318E+02 -0.53132626781E+01  0.40659141256E+02  0.00000000000E+00 0. -1.
         11    1    3    3    0    0 -0.18990399628E+01 -0.10459626901E+00 -0.63048135282E+01  0.65854359800E+01  0.51100000000E-03 0. -1.
        -11    1    3    3    0    0  0.65180200137E+01  0.15476627613E+02  0.44605927464E+01  0.17375484887E+02  0.51100000000E-03 0.  1.
         12    1    3    3    0    0 -0.57923244260E+01  0.24921370975E+02  0.71574834599E+01  0.26567937876E+02  0.00000000000E+00 0. -1.
</event>
<event>
 7    1  0.5972636E-013  0.5052886E+02  0.7816164E-02  0.1300439E+00
        -11   -1    0    0    0    0  0.00000000000E+00  0.00000000000E+00  0.45593999997E+02  0.45594000000E+02  0.51100000000E-03 0.  1.
         11   -1    0    0    0    0 -0.00000000000E+00 -0.00000000000E+00 -0.45593999997E+02  0.45594000000E+02  0.51100000000E-03 0. -1.
    9900012    2    1    2    0    0  0.33126826275E+00  0.45242259957E+01  0.40405286671E+02  0.50528861415E+02  0.30000004756E+02 0.  0.
         12    1    1    2    0    0 -0.33126826275E+00 -0.45242259957E+01 -0.40405286671E+02  0.40659138585E+02  0.00000000000E+00 0. -1.
         11    1    3    3    0    0  0.24817861082E+01  0.10703670716E+02  0.12151246343E+02  0.16382326362E+02  0.51100000000E-03 0. -1.
        -11    1    3    3    0    0 -0.55421434493E+01 -0.67763034933E+01  0.29274033672E+02  0.30554912710E+02  0.51100000000E-03 0.  1.
        -12    1    3    3    0    0  0.33916256039E+01  0.59685877292E+00 -0.10199933431E+01  0.35916223426E+01  0.00000000000E+00 0.  1.
</event>
<event>
 7    1  0.5972636E-013  0.5052886E+02  0.7816164E-02  0.1300439E+00
        -11   -1    0    0    0    0  0.00000000000E+00  0.00000000000E+00  0.45593999997E+02  0.45594000000E+02  0.51100000000E-03 0. -1.
         11   -1    0    0    0    0 -0.00000000000E+00 -0.00000000000E+00 -0.45593999997E+02  0.45594000000E+02  0.51100000000E-03 0.  1.
    9900012    2    1    2    0    0 -0.71910007352E+01  0.17506419935E+02 -0.35985840429E+02  0.50528856602E+02  0.29999990127E+02 0.  0.
         12    1    1    2    0    0  0.71910007352E+01 -0.17506419935E+02  0.35985840429E+02  0.40659143398E+02  0.00000000000E+00 0. -1.
         11    1    3    3    0    0 -0.67236063670E+01 -0.51043143263E+01 -0.92669848822E+00  0.84923305205E+01  0.51100000000E-03 0. -1.
        -11    1    3    3    0    0  0.15199082993E+01  0.14256411829E+02 -0.18735047451E+02  0.23591468854E+02  0.51100000000E-03 0.  1.
         12    1    3    3    0    0 -0.19873026675E+01  0.83543224327E+01 -0.16324094490E+02  0.18445057227E+02  0.00000000000E+00 0. -1.
</event>
<event>
 7    1  0.5972636E-013  0.5052886E+02  0.7816164E-02  0.1300439E+00
        -11   -1    0    0    0    0  0.00000000000E+00  0.00000000000E+00  0.45593999997E+02  0.45594000000E+02  0.51100000000E-03 0.  1.
         11   -1    0    0    0    0 -0.00000000000E+00 -0.00000000000E+00 -0.45593999997E+02  0.45594000000E+02  0.51100000000E-03 0. -1.
    9900012    2    1    2    0    0 -0.50848734765E+01 -0.39719766493E+02 -0.70462573407E+01  0.50528861654E+02  0.30000005482E+02 0.  0.
         12    1    1    2    0    0  0.50848734765E+01  0.39719766493E+02  0.70462573407E+01  0.40659138346E+02  0.00000000000E+00 0. -1.
         11    1    3    3    0    0 -0.17036211657E+02 -0.30265269906E+02 -0.49999340882E+01  0.35088721996E+02  0.51100000000E-03 0. -1.
        -11    1    3    3    0    0  0.99186816796E+01 -0.83466227709E+01 -0.20550762629E+01  0.13125155109E+02  0.51100000000E-03 0.  1.
         12    1    3    3    0    0  0.20326565012E+01 -0.11078738160E+01  0.87530104060E-02  0.23149845484E+01  0.00000000000E+00 0. -1.
</event>
<event>
 7    1  0.5972636E-013  0.5052882E+02  0.7816164E-02  0.1300439E+00
        -11   -1    0    0    0    0  0.00000000000E+00  0.00000000000E+00  0.45593999997E+02  0.45594000000E+02  0.51100000000E-03 0. -1.
         11   -1    0    0    0    0 -0.00000000000E+00 -0.00000000000E+00 -0.45593999997E+02  0.45594000000E+02  0.51100000000E-03 0.  1.
    9900012    2    1    2    0    0  0.35212966626E+02 -0.19152006119E+02  0.68129517344E+01  0.50528823074E+02  0.29999888214E+02 0.  0.
         12    1    1    2    0    0 -0.35212966626E+02  0.19152006119E+02 -0.68129517344E+01  0.40659176926E+02  0.00000000000E+00 0. -1.
         11    1    3    3    0    0  0.67324590312E+01 -0.32301150089E+00  0.13904568650E+02  0.15452099231E+02  0.51100000000E-03 0. -1.
        -11    1    3    3    0    0  0.12955749430E+02 -0.63212753174E+01 -0.29001250831E+01  0.14704444590E+02  0.51100000000E-03 0.  1.
         12    1    3    3    0    0  0.15524758165E+02 -0.12507719301E+02 -0.41914918324E+01  0.20372279253E+02  0.00000000000E+00 0. -1.
</event>
<event>
 7    1  0.5972636E-013  0.5052886E+02  0.7816164E-02  0.1300439E+00
        -11   -1    0    0    0    0  0.00000000000E+00  0.00000000000E+00  0.45593999997E+02  0.45594000000E+02  0.51100000000E-03 0.  1.
         11   -1    0    0    0    0 -0.00000000000E+00 -0.00000000000E+00 -0.45593999997E+02  0.45594000000E+02  0.51100000000E-03 0. -1.
    9900012    2    1    2    0    0 -0.14794242423E+02  0.37844489977E+02  0.14458613518E+01  0.50528861476E+02  0.30000004943E+02 0.  0.
         12    1    1    2    0    0  0.14794242423E+02 -0.37844489977E+02 -0.14458613518E+01  0.40659138524E+02  0.00000000000E+00 0. -1.
         11    1    3    3    0    0 -0.31298814555E+01  0.22705051041E+01  0.10818290708E+02  0.11488549319E+02  0.51100000000E-03 0. -1.
        -11    1    3    3    0    0 -0.71043121931E+01  0.18193371638E+02 -0.76982099426E+01  0.20993629031E+02  0.51100000000E-03 0.  1.
         12    1    3    3    0    0 -0.45600487740E+01  0.17380613234E+02 -0.16742194132E+01  0.18046683126E+02  0.00000000000E+00 0. -1.
</event>
<event>
 7    1  0.5972636E-013  0.5052884E+02  0.7816164E-02  0.1300439E+00
        -11   -1    0    0    0    0  0.00000000000E+00  0.00000000000E+00  0.45593999997E+02  0.45594000000E+02  0.51100000000E-03 0.  1.
         11   -1    0    0    0    0 -0.00000000000E+00 -0.00000000000E+00 -0.45593999997E+02  0.45594000000E+02  0.51100000000E-03 0. -1.
    9900012    2    1    2    0    0  0.28410509062E+02 -0.20611500106E+01  0.29013134651E+02  0.50528839325E+02  0.29999937611E+02 0.  0.
         12    1    1    2    0    0 -0.28410509062E+02  0.20611500106E+01 -0.29013134651E+02  0.40659160675E+02  0.00000000000E+00 0. -1.
         11    1    3    3    0    0  0.16589769287E+01 -0.25046448618E+01 -0.15028512475E+01  0.33591684190E+01  0.51100000000E-03 0. -1.
        -11    1    3    3    0    0  0.17372556477E+02  0.74613607849E+01  0.29979368843E+02  0.35443478664E+02  0.51100000000E-03 0.  1.
        -12    1    3    3    0    0  0.93789756567E+01 -0.70178659336E+01  0.53661705590E+00  0.11726192242E+02  0.00000000000E+00 0.  1.
</event>
<event>
 7    1  0.5972636E-013  0.5052887E+02  0.7816164E-02  0.1300439E+00
        -11   -1    0    0    0    0  0.00000000000E+00  0.00000000000E+00  0.45593999997E+02  0.45594000000E+02  0.51100000000E-03 0.  1.
         11   -1    0    0    0    0 -0.00000000000E+00 -0.00000000000E+00 -0.45593999997E+02  0.45594000000E+02  0.51100000000E-03 0. -1.
    9900012    2    1    2    0    0 -0.36114415823E+02 -0.13433276793E+01  0.18630879929E+02  0.50528865154E+02  0.30000016123E+02 0.  0.
         12    1    1    2    0    0  0.36114415823E+02  0.13433276793E+01 -0.18630879929E+02  0.40659134846E+02  0.00000000000E+00 0. -1.
         11    1    3    3    0    0 -0.17389358810E+01  0.16041013306E+01  0.15062245036E+02  0.15246910010E+02  0.51100000000E-03 0. -1.
        -11    1    3    3    0    0 -0.12190629151E+02  0.84841995466E+00  0.37213871571E+01  0.12774191879E+02  0.51100000000E-03 0.  1.
         12    1    3    3    0    0 -0.22184850791E+02 -0.37958489645E+01 -0.15275226400E+00  0.22507763266E+02  0.00000000000E+00 0. -1.
</event>
<event>
 7    1  0.5972636E-013  0.5052887E+02  0.7816164E-02  0.1300439E+00
        -11   -1    0    0    0    0  0.00000000000E+00  0.00000000000E+00  0.45593999997E+02  0.45594000000E+02  0.51100000000E-03 0.  1.
         11   -1    0    0    0    0 -0.00000000000E+00 -0.00000000000E+00 -0.45593999997E+02  0.45594000000E+02  0.51100000000E-03 0. -1.
    9900012    2    1    2    0    0  0.97185888909E+01 -0.32786297661E+02  0.21994825875E+02  0.50528872493E+02  0.30000038430E+02 0.  0.
         12    1    1    2    0    0 -0.97185888909E+01  0.32786297661E+02 -0.21994825875E+02  0.40659127507E+02  0.00000000000E+00 0. -1.
         11    1    3    3    0    0  0.27613550943E+01  0.18909049981E+01  0.77143708175E+01  0.84090499487E+01  0.51100000000E-03 0. -1.
        -11    1    3    3    0    0  0.84418370300E+01 -0.24791415136E+02  0.17637363935E+02  0.31574601877E+02  0.51100000000E-03 0.  1.
        -12    1    3    3    0    0 -0.14846032333E+01 -0.98857875231E+01 -0.33569088769E+01  0.10545220667E+02  0.00000000000E+00 0.  1.
</event>
<event>
 7    1  0.5972636E-013  0.5052886E+02  0.7816164E-02  0.1300439E+00
        -11   -1    0    0    0    0  0.00000000000E+00  0.00000000000E+00  0.45593999997E+02  0.45594000000E+02  0.51100000000E-03 0.  1.
         11   -1    0    0    0    0 -0.00000000000E+00 -0.00000000000E+00 -0.45593999997E+02  0.45594000000E+02  0.51100000000E-03 0. -1.
    9900012    2    1    2    0    0  0.10258396712E+02  0.15563548192E+02  0.36134569706E+02  0.50528857568E+02  0.29999993065E+02 0.  0.
         12    1    1    2    0    0 -0.10258396712E+02 -0.15563548192E+02 -0.36134569706E+02  0.40659142432E+02  0.00000000000E+00 0. -1.
         11    1    3    3    0    0  0.51722463687E+01 -0.11737224333E+01 -0.15307975636E+01  0.55202444050E+01  0.51100000000E-03 0. -1.
        -11    1    3    3    0    0 -0.16989330747E+01  0.17453678434E+02  0.23879795560E+02  0.29627046777E+02  0.51100000000E-03 0.  1.
        -12    1    3    3    0    0  0.67850834184E+01 -0.71640780864E+00  0.13785571710E+02  0.15381566387E+02  0.00000000000E+00 0.  1.
</event>
<event>
 7    1  0.5972636E-013  0.5052886E+02  0.7816164E-02  0.1300439E+00
        -11   -1    0    0    0    0  0.00000000000E+00  0.00000000000E+00  0.45593999997E+02  0.45594000000E+02  0.51100000000E-03 0. -1.
         11   -1    0    0    0    0 -0.00000000000E+00 -0.00000000000E+00 -0.45593999997E+02  0.45594000000E+02  0.51100000000E-03 0.  1.
    9900012    2    1    2    0    0  0.40206305260E+02 -0.14678705088E+01 -0.58705927472E+01  0.50528862211E+02  0.30000007178E+02 0.  0.
         12    1    1    2    0    0 -0.40206305260E+02  0.14678705088E+01  0.58705927472E+01  0.40659137789E+02  0.00000000000E+00 0. -1.
         11    1    3    3    0    0  0.96863613662E+00 -0.13077070881E+01  0.21702238635E+01  0.27126049606E+01  0.51100000000E-03 0. -1.
        -11    1    3    3    0    0  0.30990401355E+02  0.10985565649E+02 -0.28197624372E+01  0.33000586195E+02  0.51100000000E-03 0.  1.
        -12    1    3    3    0    0  0.82472677685E+01 -0.11145729070E+02 -0.52210541735E+01  0.14815671055E+02  0.00000000000E+00 0.  1.
</event>
<event>
 7    1  0.5972636E-013  0.5052887E+02  0.7816164E-02  0.1300439E+00
        -11   -1    0    0    0    0  0.00000000000E+00  0.00000000000E+00  0.45593999997E+02  0.45594000000E+02  0.51100000000E-03 0.  1.
         11   -1    0    0    0    0 -0.00000000000E+00 -0.00000000000E+00 -0.45593999997E+02  0.45594000000E+02  0.51100000000E-03 0. -1.
    9900012    2    1    2    0    0 -0.39823952835E+02 -0.70626147183E+01  0.41638256215E+01  0.50528865850E+02  0.30000018237E+02 0.  0.
         12    1    1    2    0    0  0.39823952835E+02  0.70626147183E+01 -0.41638256215E+01  0.40659134150E+02  0.00000000000E+00 0. -1.
         11    1    3    3    0    0 -0.25685615807E+02  0.19277936507E+01 -0.21635125862E+01  0.25848559626E+02  0.51100000000E-03 0. -1.
        -11    1    3    3    0    0  0.68270476486E+00 -0.87410630208E+01  0.59660767072E+00  0.87879582101E+01  0.51100000000E-03 0.  1.
        -12    1    3    3    0    0 -0.14821041792E+02 -0.24934534814E+00  0.57307305370E+01  0.15892348014E+02  0.00000000000E+00 0.  1.
</event>
<event>
 7    1  0.5972636E-013  0.5052886E+02  0.7816164E-02  0.1300439E+00
        -11   -1    0    0    0    0  0.00000000000E+00  0.00000000000E+00  0.45593999997E+02  0.45594000000E+02  0.51100000000E-03 0.  1.
         11   -1    0    0    0    0 -0.00000000000E+00 -0.00000000000E+00 -0.45593999997E+02  0.45594000000E+02  0.51100000000E-03 0. -1.
    9900012    2    1    2    0    0 -0.81467446491E+01 -0.49616580792E+01  0.39524399505E+02  0.50528860123E+02  0.30000000831E+02 0.  0.
         12    1    1    2    0    0  0.81467446491E+01  0.49616580792E+01 -0.39524399505E+02  0.40659139877E+02  0.00000000000E+00 0. -1.
         11    1    3    3    0    0  0.81277805639E+01  0.19155928813E+01  0.30072671752E+01  0.88754700780E+01  0.51100000000E-03 0. -1.
        -11    1    3    3    0    0 -0.92923137350E+01 -0.23831511023E+01  0.99604891160E+01  0.13828877301E+02  0.51100000000E-03 0.  1.
         12    1    3    3    0    0 -0.69822114779E+01 -0.44940998582E+01  0.26556643214E+02  0.27824512744E+02  0.00000000000E+00 0. -1.
</event>
<event>
 7    1  0.5972636E-013  0.5052885E+02  0.7816164E-02  0.1300439E+00
        -11   -1    0    0    0    0  0.00000000000E+00  0.00000000000E+00  0.45593999997E+02  0.45594000000E+02  0.51100000000E-03 0.  1.
         11   -1    0    0    0    0 -0.00000000000E+00 -0.00000000000E+00 -0.45593999997E+02  0.45594000000E+02  0.51100000000E-03 0. -1.
    9900012    2    1    2    0    0 -0.38939004757E+00 -0.40345655098E+02  0.50242524441E+01  0.50528848231E+02  0.29999964684E+02 0.  0.
         12    1    1    2    0    0  0.38939004757E+00  0.40345655098E+02 -0.50242524441E+01  0.40659151769E+02  0.00000000000E+00 0. -1.
         11    1    3    3    0    0  0.61510393990E+00  0.35475518424E-01  0.17446592191E+01  0.18502560420E+01  0.51100000000E-03 0. -1.
        -11    1    3    3    0    0  0.86896881130E+01 -0.29423496033E+02  0.10416988115E+02  0.32400099382E+02  0.51100000000E-03 0.  1.
        -12    1    3    3    0    0 -0.96941821004E+01 -0.10957634584E+02 -0.71373948897E+01  0.16278492807E+02  0.00000000000E+00 0.  1.
</event>
<event>
 7    1  0.5972636E-013  0.5052885E+02  0.7816164E-02  0.1300439E+00
        -11   -1    0    0    0    0  0.00000000000E+00  0.00000000000E+00  0.45593999997E+02  0.45594000000E+02  0.51100000000E-03 0.  1.
         11   -1    0    0    0    0 -0.00000000000E+00 -0.00000000000E+00 -0.45593999997E+02  0.45594000000E+02  0.51100000000E-03 0. -1.
    9900012    2    1    2    0    0  0.14416914156E+02 -0.14831422703E+01  0.37988414634E+02  0.50528846403E+02  0.29999959127E+02 0.  0.
         12    1    1    2    0    0 -0.14416914156E+02  0.14831422703E+01 -0.37988414634E+02  0.40659153597E+02  0.00000000000E+00 0. -1.
         11    1    3    3    0    0  0.67616936674E+01 -0.10822768726E+02  0.11716575140E+02  0.17324288078E+02  0.51100000000E-03 0. -1.
        -11    1    3    3    0    0 -0.23733157079E+01  0.96228844716E+01  0.99370611314E+01  0.14034875033E+02  0.51100000000E-03 0.  1.
         12    1    3    3    0    0  0.10028536197E+02 -0.28325801628E+00  0.16334778363E+02  0.19169683292E+02  0.00000000000E+00 0. -1.
</event>
<event>
 7    1  0.5972636E-013  0.5052886E+02  0.7816164E-02  0.1300439E+00
        -11   -1    0    0    0    0  0.00000000000E+00  0.00000000000E+00  0.45593999997E+02  0.45594000000E+02  0.51100000000E-03 0.  1.
         11   -1    0    0    0    0 -0.00000000000E+00 -0.00000000000E+00 -0.45593999997E+02  0.45594000000E+02  0.51100000000E-03 0. -1.
    9900012    2    1    2    0    0  0.79151593809E+01 -0.33378916161E+02  0.21825766859E+02  0.50528857226E+02  0.29999992025E+02 0.  0.
         12    1    1    2    0    0 -0.79151593809E+01  0.33378916161E+02 -0.21825766859E+02  0.40659142774E+02  0.00000000000E+00 0. -1.
         11    1    3    3    0    0 -0.23249052627E+00 -0.14374209060E+01  0.32560191035E+01  0.35667760470E+01  0.51100000000E-03 0. -1.
        -11    1    3    3    0    0 -0.19708649242E+01 -0.16504431324E+02  0.22614951325E+02  0.28066289131E+02  0.51100000000E-03 0.  1.
        -12    1    3    3    0    0  0.10118514831E+02 -0.15437063931E+02 -0.40452035698E+01  0.18895792048E+02  0.00000000000E+00 0.  1.
</event>
<event>
 7    1  0.5972636E-013  0.5052886E+02  0.7816164E-02  0.1300439E+00
        -11   -1    0    0    0    0  0.00000000000E+00  0.00000000000E+00  0.45593999997E+02  0.45594000000E+02  0.51100000000E-03 0. -1.
         11   -1    0    0    0    0 -0.00000000000E+00 -0.00000000000E+00 -0.45593999997E+02  0.45594000000E+02  0.51100000000E-03 0.  1.
    9900012    2    1    2    0    0  0.12437957951E+02  0.37654864879E+02  0.89762913390E+01  0.50528862611E+02  0.30000008392E+02 0.  0.
         12    1    1    2    0    0 -0.12437957951E+02 -0.37654864879E+02 -0.89762913390E+01  0.40659137389E+02  0.00000000000E+00 0. -1.
         11    1    3    3    0    0  0.11329702956E+02  0.84591156276E+01 -0.62048164358E+01  0.15440808059E+02  0.51100000000E-03 0. -1.
        -11    1    3    3    0    0 -0.38094250262E+01  0.19607992267E+02  0.57958418444E+01  0.20798482222E+02  0.51100000000E-03 0.  1.
        -12    1    3    3    0    0  0.49176800217E+01  0.95877569842E+01  0.93852659304E+01  0.14289572330E+02  0.00000000000E+00 0.  1.
</event>
<event>
 7    1  0.5972636E-013  0.5052886E+02  0.7816164E-02  0.1300439E+00
        -11   -1    0    0    0    0  0.00000000000E+00  0.00000000000E+00  0.45593999997E+02  0.45594000000E+02  0.51100000000E-03 0.  1.
         11   -1    0    0    0    0 -0.00000000000E+00 -0.00000000000E+00 -0.45593999997E+02  0.45594000000E+02  0.51100000000E-03 0. -1.
    9900012    2    1    2    0    0 -0.30861592580E+00 -0.37390627007E+02  0.15969080858E+02  0.50528858652E+02  0.29999996358E+02 0.  0.
         12    1    1    2    0    0  0.30861592580E+00  0.37390627007E+02 -0.15969080858E+02  0.40659141348E+02  0.00000000000E+00 0. -1.
         11    1    3    3    0    0  0.23381506050E+01 -0.86810002446E+00 -0.48448148291E+01  0.54491078989E+01  0.51100000000E-03 0. -1.
        -11    1    3    3    0    0  0.58218938751E+01 -0.25074655821E+02  0.13761618009E+02  0.29189295013E+02  0.51100000000E-03 0.  1.
         12    1    3    3    0    0 -0.84686604059E+01 -0.11447871161E+02  0.70522776773E+01  0.15890455740E+02  0.00000000000E+00 0. -1.
</event>
<event>
 7    1  0.5972636E-013  0.5052886E+02  0.7816164E-02  0.1300439E+00
        -11   -1    0    0    0    0  0.00000000000E+00  0.00000000000E+00  0.45593999997E+02  0.45594000000E+02  0.51100000000E-03 0.  1.
         11   -1    0    0    0    0 -0.00000000000E+00 -0.00000000000E+00 -0.45593999997E+02  0.45594000000E+02  0.51100000000E-03 0. -1.
    9900012    2    1    2    0    0 -0.70257610502E+01 -0.47644728063E+01  0.39763104887E+02  0.50528855522E+02  0.29999986845E+02 0.  0.
         12    1    1    2    0    0  0.70257610502E+01  0.47644728063E+01 -0.39763104887E+02  0.40659144478E+02  0.00000000000E+00 0. -1.
         11    1    3    3    0    0  0.53938051992E+01  0.32480548617E+01 -0.13638851301E+01  0.64422960054E+01  0.51100000000E-03 0. -1.
        -11    1    3    3    0    0 -0.14414888392E+01 -0.49457877290E+00  0.11605635113E+02  0.11705266545E+02  0.51100000000E-03 0.  1.
         12    1    3    3    0    0 -0.10978077410E+02 -0.75179488951E+01  0.29521354903E+02  0.32381292972E+02  0.00000000000E+00 0. -1.
</event>
<event>
 7    1  0.5972636E-013  0.5052886E+02  0.7816164E-02  0.1300439E+00
        -11   -1    0    0    0    0  0.00000000000E+00  0.00000000000E+00  0.45593999997E+02  0.45594000000E+02  0.51100000000E-03 0.  1.
         11   -1    0    0    0    0 -0.00000000000E+00 -0.00000000000E+00 -0.45593999997E+02  0.45594000000E+02  0.51100000000E-03 0. -1.
    9900012    2    1    2    0    0  0.20680961246E+02 -0.32319220098E+02  0.13451082212E+02  0.50528858858E+02  0.29999996983E+02 0.  0.
         12    1    1    2    0    0 -0.20680961246E+02  0.32319220098E+02 -0.13451082212E+02  0.40659141142E+02  0.00000000000E+00 0. -1.
         11    1    3    3    0    0  0.18294414676E+02 -0.16792051442E+02  0.64465956423E+01  0.25655743910E+02  0.51100000000E-03 0.  1.
        -11    1    3    3    0    0 -0.35466819195E+01 -0.16804919613E+02  0.75864789449E+01  0.18776020316E+02  0.51100000000E-03 0. -1.
         12    1    3    3    0    0  0.59332284895E+01  0.12777509580E+01 -0.58199237513E+00  0.60970946314E+01  0.00000000000E+00 0. -1.
</event>
<event>
 7    1  0.5972636E-013  0.5052886E+02  0.7816164E-02  0.1300439E+00
        -11   -1    0    0    0    0  0.00000000000E+00  0.00000000000E+00  0.45593999997E+02  0.45594000000E+02  0.51100000000E-03 0. -1.
         11   -1    0    0    0    0 -0.00000000000E+00 -0.00000000000E+00 -0.45593999997E+02  0.45594000000E+02  0.51100000000E-03 0.  1.
    9900012    2    1    2    0    0  0.32764833908E+02  0.74963097155E+01 -0.22878742692E+02  0.50528857516E+02  0.29999992906E+02 0.  0.
         12    1    1    2    0    0 -0.32764833908E+02 -0.74963097155E+01  0.22878742692E+02  0.40659142484E+02  0.00000000000E+00 0. -1.
         11    1    3    3    0    0 -0.50208371274E+01  0.47889091832E+01 -0.42650593223E+01  0.81445188875E+01  0.51100000000E-03 0. -1.
        -11    1    3    3    0    0  0.25739808484E+02  0.23548610617E+01 -0.14581474657E+02  0.29676632472E+02  0.51100000000E-03 0.  1.
         12    1    3    3    0    0  0.12045862551E+02  0.35253947055E+00 -0.40322087128E+01  0.12707706157E+02  0.00000000000E+00 0. -1.
</event>
<event>
 7    1  0.5972636E-013  0.5052884E+02  0.7816164E-02  0.1300439E+00
        -11   -1    0    0    0    0  0.00000000000E+00  0.00000000000E+00  0.45593999997E+02  0.45594000000E+02  0.51100000000E-03 0. -1.
         11   -1    0    0    0    0 -0.00000000000E+00 -0.00000000000E+00 -0.45593999997E+02  0.45594000000E+02  0.51100000000E-03 0.  1.
    9900012    2    1    2    0    0 -0.39435712223E+02  0.98929047443E+01  0.34935098864E+00  0.50528843480E+02  0.29999950241E+02 0.  0.
         12    1    1    2    0    0  0.39435712223E+02 -0.98929047443E+01 -0.34935098864E+00  0.40659156520E+02  0.00000000000E+00 0. -1.
         11    1    3    3    0    0 -0.18776884399E+02 -0.30146497501E+01  0.45355718308E+01  0.19550726661E+02  0.51100000000E-03 0. -1.
        -11    1    3    3    0    0 -0.11513911246E+02  0.16855476018E+02 -0.69905938432E+00  0.20424639734E+02  0.51100000000E-03 0.  1.
        -12    1    3    3    0    0 -0.91449165774E+01 -0.39479215233E+01 -0.34871614578E+01  0.10553477086E+02  0.00000000000E+00 0.  1.
</event>
<event>
 7    1  0.5972636E-013  0.5052892E+02  0.7816164E-02  0.1300439E+00
        -11   -1    0    0    0    0  0.00000000000E+00  0.00000000000E+00  0.45593999997E+02  0.45594000000E+02  0.51100000000E-03 0. -1.
         11   -1    0    0    0    0 -0.00000000000E+00 -0.00000000000E+00 -0.45593999997E+02  0.45594000000E+02  0.51100000000E-03 0.  1.
    9900012    2    1    2    0    0 -0.30438674351E+02  0.37233359732E+01 -0.26698026758E+02  0.50528920328E+02  0.30000183829E+02 0.  0.
         12    1    1    2    0    0  0.30438674351E+02 -0.37233359732E+01  0.26698026758E+02  0.40659079672E+02  0.00000000000E+00 0. -1.
         11    1    3    3    0    0 -0.89695132878E+01  0.65565724820E+01  0.41860360528E+01  0.11872813880E+02  0.51100000000E-03 0. -1.
        -11    1    3    3    0    0 -0.66504235247E+01  0.22123523941E+01 -0.13843867744E+02  0.15516936249E+02  0.51100000000E-03 0.  1.
         12    1    3    3    0    0 -0.14818737538E+02 -0.50455889029E+01 -0.17040195066E+02  0.23139170199E+02  0.00000000000E+00 0. -1.
</event>
<event>
 7    1  0.5972636E-013  0.5052887E+02  0.7816164E-02  0.1300439E+00
        -11   -1    0    0    0    0  0.00000000000E+00  0.00000000000E+00  0.45593999997E+02  0.45594000000E+02  0.51100000000E-03 0.  1.
         11   -1    0    0    0    0 -0.00000000000E+00 -0.00000000000E+00 -0.45593999997E+02  0.45594000000E+02  0.51100000000E-03 0. -1.
    9900012    2    1    2    0    0  0.18760352338E+00  0.16829879545E+02  0.37011953271E+02  0.50528871560E+02  0.30000035594E+02 0.  0.
         12    1    1    2    0    0 -0.18760352338E+00 -0.16829879545E+02 -0.37011953271E+02  0.40659128440E+02  0.00000000000E+00 0. -1.
         11    1    3    3    0    0 -0.20084334021E+01 -0.34512476832E+01 -0.16089451833E+01  0.43050691244E+01  0.51100000000E-03 0. -1.
        -11    1    3    3    0    0 -0.44733625986E+01  0.14093258530E+02  0.31038536448E+02  0.34380541794E+02  0.51100000000E-03 0.  1.
        -12    1    3    3    0    0  0.66693995241E+01  0.61878686985E+01  0.75823620056E+01  0.11843260642E+02  0.00000000000E+00 0.  1.
</event>
<event>
 7    1  0.5972636E-013  0.5052888E+02  0.7816164E-02  0.1300439E+00
        -11   -1    0    0    0    0  0.00000000000E+00  0.00000000000E+00  0.45593999997E+02  0.45594000000E+02  0.51100000000E-03 0. -1.
         11   -1    0    0    0    0 -0.00000000000E+00 -0.00000000000E+00 -0.45593999997E+02  0.45594000000E+02  0.51100000000E-03 0.  1.
    9900012    2    1    2    0    0 -0.23477898679E+02 -0.53789619651E+01 -0.32756964616E+02  0.50528884306E+02  0.30000074336E+02 0.  0.
         12    1    1    2    0    0  0.23477898679E+02  0.53789619651E+01  0.32756964616E+02  0.40659115694E+02  0.00000000000E+00 0. -1.
         11    1    3    3    0    0 -0.23505192451E+01  0.73888336297E+00 -0.11947769385E+02  0.12199183698E+02  0.51100000000E-03 0. -1.
        -11    1    3    3    0    0 -0.11701808299E+01 -0.37551494754E+00  0.50309474219E+01  0.51788769896E+01  0.51100000000E-03 0.  1.
        -12    1    3    3    0    0 -0.19957198604E+02 -0.57423303806E+01 -0.25840142652E+02  0.33150823619E+02  0.00000000000E+00 0.  1.
</event>
<event>
 7    1  0.5972636E-013  0.5052886E+02  0.7816164E-02  0.1300439E+00
        -11   -1    0    0    0    0  0.00000000000E+00  0.00000000000E+00  0.45593999997E+02  0.45594000000E+02  0.51100000000E-03 0. -1.
         11   -1    0    0    0    0 -0.00000000000E+00 -0.00000000000E+00 -0.45593999997E+02  0.45594000000E+02  0.51100000000E-03 0.  1.
    9900012    2    1    2    0    0  0.37657758555E+02 -0.97715809060E+01 -0.11814190850E+02  0.50528859844E+02  0.29999999982E+02 0.  0.
         12    1    1    2    0    0 -0.37657758555E+02  0.97715809060E+01  0.11814190850E+02  0.40659140156E+02  0.00000000000E+00 0. -1.
         11    1    3    3    0    0  0.12880834617E+01 -0.72995645905E+01 -0.15690270363E+01  0.75765855316E+01  0.51100000000E-03 0. -1.
        -11    1    3    3    0    0  0.34948816946E+02  0.38948698716E+01 -0.81101661987E+01  0.36088289143E+02  0.51100000000E-03 0.  1.
        -12    1    3    3    0    0  0.14208581473E+01 -0.63668861871E+01 -0.21349976154E+01  0.68639851698E+01  0.00000000000E+00 0.  1.
</event>
<event>
 7    1  0.5972636E-013  0.5052882E+02  0.7816164E-02  0.1300439E+00
        -11   -1    0    0    0    0  0.00000000000E+00  0.00000000000E+00  0.45593999997E+02  0.45594000000E+02  0.51100000000E-03 0.  1.
         11   -1    0    0    0    0 -0.00000000000E+00 -0.00000000000E+00 -0.45593999997E+02  0.45594000000E+02  0.51100000000E-03 0. -1.
    9900012    2    1    2    0    0 -0.15555168695E+02  0.24316493809E+02  0.28634136612E+02  0.50528819932E+02  0.29999878665E+02 0.  0.
         12    1    1    2    0    0  0.15555168695E+02 -0.24316493809E+02 -0.28634136612E+02  0.40659180068E+02  0.00000000000E+00 0. -1.
         11    1    3    3    0    0 -0.43170460430E+01 -0.24369069612E+01  0.79998528047E-01  0.49580038423E+01  0.51100000000E-03 0. -1.
        -11    1    3    3    0    0 -0.12996168397E+02  0.26939487500E+02  0.18083751295E+02  0.34952230844E+02  0.51100000000E-03 0.  1.
         12    1    3    3    0    0  0.17580457448E+01 -0.18608673078E+00  0.10470386789E+02  0.10618585246E+02  0.00000000000E+00 0. -1.
</event>
<event>
 7    1  0.5972636E-013  0.5052886E+02  0.7816164E-02  0.1300439E+00
        -11   -1    0    0    0    0  0.00000000000E+00  0.00000000000E+00  0.45593999997E+02  0.45594000000E+02  0.51100000000E-03 0.  1.
         11   -1    0    0    0    0 -0.00000000000E+00 -0.00000000000E+00 -0.45593999997E+02  0.45594000000E+02  0.51100000000E-03 0. -1.
    9900012    2    1    2    0    0 -0.55149862055E+01  0.36419855550E+02  0.17214659398E+02  0.50528862659E+02  0.30000008539E+02 0.  0.
         12    1    1    2    0    0  0.55149862055E+01 -0.36419855550E+02 -0.17214659398E+02  0.40659137341E+02  0.00000000000E+00 0. -1.
         11    1    3    3    0    0  0.62925335133E+01  0.34344207681E+01 -0.45835696653E+01  0.85088386496E+01  0.51100000000E-03 0. -1.
        -11    1    3    3    0    0 -0.92934375192E+01  0.30429807133E+02  0.21546073163E+02  0.38426220372E+02  0.51100000000E-03 0.  1.
        -12    1    3    3    0    0 -0.25140821995E+01  0.25556276488E+01  0.25215589957E+00  0.35938036372E+01  0.00000000000E+00 0.  1.
</event>
<event>
 7    1  0.5972636E-013  0.5052886E+02  0.7816164E-02  0.1300439E+00
        -11   -1    0    0    0    0  0.00000000000E+00  0.00000000000E+00  0.45593999997E+02  0.45594000000E+02  0.51100000000E-03 0. -1.
         11   -1    0    0    0    0 -0.00000000000E+00 -0.00000000000E+00 -0.45593999997E+02  0.45594000000E+02  0.51100000000E-03 0.  1.
    9900012    2    1    2    0    0  0.15952140267E+02  0.44390618648E+01 -0.37134749775E+02  0.50528859697E+02  0.29999999534E+02 0.  0.
         12    1    1    2    0    0 -0.15952140267E+02 -0.44390618648E+01  0.37134749775E+02  0.40659140303E+02  0.00000000000E+00 0. -1.
         11    1    3    3    0    0 -0.49920639353E+01  0.79461402928E+01 -0.82415720017E+01  0.12489409802E+02  0.51100000000E-03 0. -1.
        -11    1    3    3    0    0  0.10826743275E+02  0.57818009138E+00 -0.23473442469E+02  0.25856433702E+02  0.51100000000E-03 0.  1.
         12    1    3    3    0    0  0.10117460927E+02 -0.40852585194E+01 -0.54197353042E+01  0.12183016193E+02  0.00000000000E+00 0. -1.
</event>
<event>
 7    1  0.5972636E-013  0.5052886E+02  0.7816164E-02  0.1300439E+00
        -11   -1    0    0    0    0  0.00000000000E+00  0.00000000000E+00  0.45593999997E+02  0.45594000000E+02  0.51100000000E-03 0.  1.
         11   -1    0    0    0    0 -0.00000000000E+00 -0.00000000000E+00 -0.45593999997E+02  0.45594000000E+02  0.51100000000E-03 0. -1.
    9900012    2    1    2    0    0 -0.21262158087E+02 -0.34623848004E+02 -0.15083764420E+01  0.50528863061E+02  0.30000009760E+02 0.  0.
         12    1    1    2    0    0  0.21262158087E+02  0.34623848004E+02  0.15083764420E+01  0.40659136939E+02  0.00000000000E+00 0. -1.
         11    1    3    3    0    0 -0.60120012141E+01  0.23353036329E+01 -0.52496262820E+01  0.83160313863E+01  0.51100000000E-03 0. -1.
        -11    1    3    3    0    0  0.13771249492E+00 -0.13008210683E+02  0.44121691791E+01  0.13736802649E+02  0.51100000000E-03 0.  1.
         12    1    3    3    0    0 -0.15387869368E+02 -0.23950940955E+02 -0.67091933910E+00  0.28476029025E+02  0.00000000000E+00 0. -1.
</event>
<event>
 7    1  0.5972636E-013  0.5052885E+02  0.7816164E-02  0.1300439E+00
        -11   -1    0    0    0    0  0.00000000000E+00  0.00000000000E+00  0.45593999997E+02  0.45594000000E+02  0.51100000000E-03 0. -1.
         11   -1    0    0    0    0 -0.00000000000E+00 -0.00000000000E+00 -0.45593999997E+02  0.45594000000E+02  0.51100000000E-03 0.  1.
    9900012    2    1    2    0    0 -0.26957153484E+02 -0.17916910953E+02  0.24606144229E+02  0.50528853970E+02  0.29999982126E+02 0.  0.
         12    1    1    2    0    0  0.26957153484E+02  0.17916910953E+02 -0.24606144229E+02  0.40659146030E+02  0.00000000000E+00 0. -1.
         11    1    3    3    0    0  0.22193416395E+01 -0.35098760205E+01  0.75331650710E+01  0.86019348544E+01  0.51100000000E-03 0. -1.
        -11    1    3    3    0    0 -0.21087603084E+02 -0.17332772500E+02  0.18811895553E+02  0.33151160175E+02  0.51100000000E-03 0.  1.
        -12    1    3    3    0    0 -0.80888920395E+01  0.29257375677E+01 -0.17389163951E+01  0.87757589399E+01  0.00000000000E+00 0.  1.
</event>
<event>
 7    1  0.5972636E-013  0.5052888E+02  0.7816164E-02  0.1300439E+00
        -11   -1    0    0    0    0  0.00000000000E+00  0.00000000000E+00  0.45593999997E+02  0.45594000000E+02  0.51100000000E-03 0.  1.
         11   -1    0    0    0    0 -0.00000000000E+00 -0.00000000000E+00 -0.45593999997E+02  0.45594000000E+02  0.51100000000E-03 0. -1.
    9900012    2    1    2    0    0 -0.34869219254E+01  0.37680496344E+02  0.14872320649E+02  0.50528876169E+02  0.30000049602E+02 0.  0.
         12    1    1    2    0    0  0.34869219254E+01 -0.37680496344E+02 -0.14872320649E+02  0.40659123831E+02  0.00000000000E+00 0. -1.
         11    1    3    3    0    0 -0.90703948923E+01 -0.67729122051E+00  0.44206270173E+01  0.10112998091E+02  0.51100000000E-03 0. -1.
        -11    1    3    3    0    0  0.78510099805E+00  0.14688131959E+02  0.58529534383E+01  0.15830813884E+02  0.51100000000E-03 0.  1.
         12    1    3    3    0    0  0.47983719688E+01  0.23669655606E+02  0.45987401939E+01  0.24585064194E+02  0.00000000000E+00 0. -1.
</event>
<event>
 7    1  0.5972636E-013  0.5052885E+02  0.7816164E-02  0.1300439E+00
        -11   -1    0    0    0    0  0.00000000000E+00  0.00000000000E+00  0.45593999997E+02  0.45594000000E+02  0.51100000000E-03 0.  1.
         11   -1    0    0    0    0 -0.00000000000E+00 -0.00000000000E+00 -0.45593999997E+02  0.45594000000E+02  0.51100000000E-03 0. -1.
    9900012    2    1    2    0    0 -0.15428996310E+02  0.21783847035E+02  0.30668817320E+02  0.50528852511E+02  0.29999977692E+02 0.  0.
         12    1    1    2    0    0  0.15428996310E+02 -0.21783847035E+02 -0.30668817320E+02  0.40659147489E+02  0.00000000000E+00 0. -1.
         11    1    3    3    0    0 -0.31805156953E+01  0.16270829121E+02  0.22130742488E+01  0.16725826086E+02  0.51100000000E-03 0. -1.
        -11    1    3    3    0    0 -0.10408251705E+02  0.88338756112E+01  0.17417115631E+02  0.22129730659E+02  0.51100000000E-03 0.  1.
         12    1    3    3    0    0 -0.18402289091E+01 -0.33208576972E+01  0.11038627440E+02  0.11673295766E+02  0.00000000000E+00 0. -1.
</event>
<event>
 7    1  0.5972636E-013  0.5052885E+02  0.7816164E-02  0.1300439E+00
        -11   -1    0    0    0    0  0.00000000000E+00  0.00000000000E+00  0.45593999997E+02  0.45594000000E+02  0.51100000000E-03 0.  1.
         11   -1    0    0    0    0 -0.00000000000E+00 -0.00000000000E+00 -0.45593999997E+02  0.45594000000E+02  0.51100000000E-03 0. -1.
    9900012    2    1    2    0    0 -0.21624951273E+02  0.30507655715E+02  0.15962808194E+02  0.50528845801E+02  0.29999957296E+02 0.  0.
         12    1    1    2    0    0  0.21624951273E+02 -0.30507655715E+02 -0.15962808194E+02  0.40659154199E+02  0.00000000000E+00 0. -1.
         11    1    3    3    0    0 -0.18655987780E+02  0.19524432839E+02  0.19264107547E+02  0.33171602277E+02  0.51100000000E-03 0.  1.
        -11    1    3    3    0    0 -0.53384404764E+01  0.81759862326E+01 -0.70999144420E+01  0.12072882131E+02  0.51100000000E-03 0. -1.
         12    1    3    3    0    0  0.23694769833E+01  0.28072366425E+01  0.37986150886E+01  0.52843613931E+01  0.00000000000E+00 0. -1.
</event>
<event>
 7    1  0.5972636E-013  0.5052882E+02  0.7816164E-02  0.1300439E+00
        -11   -1    0    0    0    0  0.00000000000E+00  0.00000000000E+00  0.45593999997E+02  0.45594000000E+02  0.51100000000E-03 0.  1.
         11   -1    0    0    0    0 -0.00000000000E+00 -0.00000000000E+00 -0.45593999997E+02  0.45594000000E+02  0.51100000000E-03 0. -1.
    9900012    2    1    2    0    0  0.32125281209E+02 -0.22820673045E+02 -0.10017569706E+02  0.50528824974E+02  0.29999893990E+02 0.  0.
         12    1    1    2    0    0 -0.32125281209E+02  0.22820673045E+02  0.10017569706E+02  0.40659175026E+02  0.00000000000E+00 0. -1.
         11    1    3    3    0    0 -0.19799867134E+01 -0.30595852392E+00  0.50862081725E+01  0.54665777081E+01  0.51100000000E-03 0. -1.
        -11    1    3    3    0    0  0.17734750808E+02 -0.13975534501E+02 -0.13995515725E+02  0.26565229370E+02  0.51100000000E-03 0.  1.
         12    1    3    3    0    0  0.16370517115E+02 -0.85391800206E+01 -0.11082621526E+01  0.18497017895E+02  0.00000000000E+00 0. -1.
</event>
<event>
 7    1  0.5972636E-013  0.5052877E+02  0.7816164E-02  0.1300439E+00
        -11   -1    0    0    0    0  0.00000000000E+00  0.00000000000E+00  0.45593999997E+02  0.45594000000E+02  0.51100000000E-03 0. -1.
         11   -1    0    0    0    0 -0.00000000000E+00 -0.00000000000E+00 -0.45593999997E+02  0.45594000000E+02  0.51100000000E-03 0.  1.
    9900012    2    1    2    0    0  0.24902394823E+02 -0.29985177757E+02  0.11572928953E+02  0.50528771803E+02  0.29999732372E+02 0.  0.
         12    1    1    2    0    0 -0.24902394823E+02  0.29985177757E+02 -0.11572928953E+02  0.40659228197E+02  0.00000000000E+00 0. -1.
         11    1    3    3    0    0  0.68549835894E+01 -0.57743529272E+01  0.16730840201E+02  0.18980383711E+02  0.51100000000E-03 0. -1.
        -11    1    3    3    0    0  0.13024212971E+02 -0.11638835558E+02 -0.15383409555E+01  0.17534511964E+02  0.51100000000E-03 0.  1.
         12    1    3    3    0    0  0.50231982622E+01 -0.12571989272E+02 -0.36195702920E+01  0.14013876128E+02  0.00000000000E+00 0. -1.
</event>
<event>
 7    1  0.5972636E-013  0.5052886E+02  0.7816164E-02  0.1300439E+00
        -11   -1    0    0    0    0  0.00000000000E+00  0.00000000000E+00  0.45593999997E+02  0.45594000000E+02  0.51100000000E-03 0. -1.
         11   -1    0    0    0    0 -0.00000000000E+00 -0.00000000000E+00 -0.45593999997E+02  0.45594000000E+02  0.51100000000E-03 0.  1.
    9900012    2    1    2    0    0 -0.34797775237E+02 -0.18918516790E+02 -0.91853324942E+01  0.50528858691E+02  0.29999996476E+02 0.  0.
         12    1    1    2    0    0  0.34797775237E+02  0.18918516790E+02  0.91853324942E+01  0.40659141309E+02  0.00000000000E+00 0. -1.
         11    1    3    3    0    0 -0.11372395917E+02  0.53507728783E+01 -0.10090931446E+02  0.16117973105E+02  0.51100000000E-03 0. -1.
        -11    1    3    3    0    0 -0.15479622784E+02 -0.13871972652E+02 -0.23722633400E+01  0.20920754776E+02  0.51100000000E-03 0.  1.
        -12    1    3    3    0    0 -0.79457565361E+01 -0.10397317016E+02  0.32778622920E+01  0.13490130810E+02  0.00000000000E+00 0.  1.
</event>
<event>
 7    1  0.5972636E-013  0.5052886E+02  0.7816164E-02  0.1300439E+00
        -11   -1    0    0    0    0  0.00000000000E+00  0.00000000000E+00  0.45593999997E+02  0.45594000000E+02  0.51100000000E-03 0.  1.
         11   -1    0    0    0    0 -0.00000000000E+00 -0.00000000000E+00 -0.45593999997E+02  0.45594000000E+02  0.51100000000E-03 0. -1.
    9900012    2    1    2    0    0 -0.11164020830E+02 -0.17206392305E+02  0.35106557275E+02  0.50528860056E+02  0.30000000627E+02 0.  0.
         12    1    1    2    0    0  0.11164020830E+02  0.17206392305E+02 -0.35106557275E+02  0.40659139944E+02  0.00000000000E+00 0. -1.
         11    1    3    3    0    0  0.78259904020E+01 -0.67597210702E+01  0.21424192879E+02  0.23789409314E+02  0.51100000000E-03 0. -1.
        -11    1    3    3    0    0 -0.14224195391E+02 -0.63499129250E+01  0.57165975126E+01  0.16593029140E+02  0.51100000000E-03 0.  1.
         12    1    3    3    0    0 -0.47658158414E+01 -0.40967583102E+01  0.79657668831E+01  0.10146421602E+02  0.00000000000E+00 0. -1.
</event>
<event>
 7    1  0.5972636E-013  0.5052886E+02  0.7816164E-02  0.1300439E+00
        -11   -1    0    0    0    0  0.00000000000E+00  0.00000000000E+00  0.45593999997E+02  0.45594000000E+02  0.51100000000E-03 0. -1.
         11   -1    0    0    0    0 -0.00000000000E+00 -0.00000000000E+00 -0.45593999997E+02  0.45594000000E+02  0.51100000000E-03 0.  1.
    9900012    2    1    2    0    0 -0.71989626296E+01  0.50853354748E+01 -0.39692316721E+02  0.50528859497E+02  0.29999998926E+02 0.  0.
         12    1    1    2    0    0  0.71989626296E+01 -0.50853354748E+01  0.39692316721E+02  0.40659140503E+02  0.00000000000E+00 0. -1.
         11    1    3    3    0    0 -0.21342253445E+01  0.56424114013E+00 -0.10091703892E+01  0.24272847013E+01  0.51100000000E-03 0. -1.
        -11    1    3    3    0    0 -0.12843558841E+02  0.11379987110E+02 -0.30064301191E+02  0.34616806853E+02  0.51100000000E-03 0.  1.
        -12    1    3    3    0    0  0.77788215563E+01 -0.68588927749E+01 -0.86188451404E+01  0.13484767942E+02  0.00000000000E+00 0.  1.
</event>
<event>
 7    1  0.5972636E-013  0.5052886E+02  0.7816164E-02  0.1300439E+00
        -11   -1    0    0    0    0  0.00000000000E+00  0.00000000000E+00  0.45593999997E+02  0.45594000000E+02  0.51100000000E-03 0. -1.
         11   -1    0    0    0    0 -0.00000000000E+00 -0.00000000000E+00 -0.45593999997E+02  0.45594000000E+02  0.51100000000E-03 0.  1.
    9900012    2    1    2    0    0 -0.23694826826E+02  0.29846139025E+02  0.14174928404E+02  0.50528862918E+02  0.30000009326E+02 0.  0.
         12    1    1    2    0    0  0.23694826826E+02 -0.29846139025E+02 -0.14174928404E+02  0.40659137082E+02  0.00000000000E+00 0. -1.
         11    1    3    3    0    0 -0.56020560210E+01 -0.25130617632E+01  0.10325383240E+02  0.12012995064E+02  0.51100000000E-03 0. -1.
        -11    1    3    3    0    0 -0.28197690567E+01  0.10414752184E+02 -0.24124928668E+01  0.11056142305E+02  0.51100000000E-03 0.  1.
         12    1    3    3    0    0 -0.15273001748E+02  0.21944448604E+02  0.62620380310E+01  0.27459725549E+02  0.00000000000E+00 0. -1.
</event>
<event>
 7    1  0.5972636E-013  0.5052886E+02  0.7816164E-02  0.1300439E+00
        -11   -1    0    0    0    0  0.00000000000E+00  0.00000000000E+00  0.45593999997E+02  0.45594000000E+02  0.51100000000E-03 0.  1.
         11   -1    0    0    0    0 -0.00000000000E+00 -0.00000000000E+00 -0.45593999997E+02  0.45594000000E+02  0.51100000000E-03 0. -1.
    9900012    2    1    2    0    0  0.10663671511E+02 -0.18733564980E+02  0.34474710325E+02  0.50528855900E+02  0.29999987995E+02 0.  0.
         12    1    1    2    0    0 -0.10663671511E+02  0.18733564980E+02 -0.34474710325E+02  0.40659144100E+02  0.00000000000E+00 0. -1.
         11    1    3    3    0    0  0.13231414329E+02 -0.43685039049E+01  0.28653489194E+01  0.14225483339E+02  0.51100000000E-03 0. -1.
        -11    1    3    3    0    0  0.34591114924E+00 -0.93796898475E-01  0.11327374545E+02  0.11333043136E+02  0.51100000000E-03 0.  1.
         12    1    3    3    0    0 -0.29136539674E+01 -0.14271264176E+02  0.20281986861E+02  0.24970329426E+02  0.00000000000E+00 0. -1.
</event>
<event>
 7    1  0.5972636E-013  0.5052887E+02  0.7816164E-02  0.1300439E+00
        -11   -1    0    0    0    0  0.00000000000E+00  0.00000000000E+00  0.45593999997E+02  0.45594000000E+02  0.51100000000E-03 0.  1.
         11   -1    0    0    0    0 -0.00000000000E+00 -0.00000000000E+00 -0.45593999997E+02  0.45594000000E+02  0.51100000000E-03 0. -1.
    9900012    2    1    2    0    0  0.21173992852E+02 -0.12125322884E+02  0.32523885688E+02  0.50528873490E+02  0.30000041459E+02 0.  0.
         12    1    1    2    0    0 -0.21173992852E+02  0.12125322884E+02 -0.32523885688E+02  0.40659126510E+02  0.00000000000E+00 0. -1.
         11    1    3    3    0    0  0.24947470714E+02 -0.73547136868E+01  0.21033712947E+02  0.33449741240E+02  0.51100000000E-03 0.  1.
        -11    1    3    3    0    0 -0.35865780076E+01 -0.78293896178E+01  0.51422944858E+01  0.10030258044E+02  0.51100000000E-03 0. -1.
         12    1    3    3    0    0 -0.18689985492E+00  0.30587804201E+01  0.63478782552E+01  0.70488742050E+01  0.00000000000E+00 0. -1.
</event>
<event>
 7    1  0.5972636E-013  0.5052888E+02  0.7816164E-02  0.1300439E+00
        -11   -1    0    0    0    0  0.00000000000E+00  0.00000000000E+00  0.45593999997E+02  0.45594000000E+02  0.51100000000E-03 0.  1.
         11   -1    0    0    0    0 -0.00000000000E+00 -0.00000000000E+00 -0.45593999997E+02  0.45594000000E+02  0.51100000000E-03 0. -1.
    9900012    2    1    2    0    0  0.12004689854E+02 -0.38829453298E+02  0.11512189674E+01  0.50528876461E+02  0.30000050490E+02 0.  0.
         12    1    1    2    0    0 -0.12004689854E+02  0.38829453298E+02 -0.11512189674E+01  0.40659123539E+02  0.00000000000E+00 0. -1.
         11    1    3    3    0    0  0.11310493695E+02 -0.74562899889E+01  0.69777085183E+01  0.15238502041E+02  0.51100000000E-03 0. -1.
        -11    1    3    3    0    0  0.17554302684E+01 -0.32796516462E+02 -0.46757224130E+01  0.33174619935E+02  0.51100000000E-03 0.  1.
         12    1    3    3    0    0 -0.10612341091E+01  0.14233531537E+01 -0.11507671379E+01  0.21157544849E+01  0.00000000000E+00 0. -1.
</event>
<event>
 7    1  0.5972636E-013  0.5052888E+02  0.7816164E-02  0.1300439E+00
        -11   -1    0    0    0    0  0.00000000000E+00  0.00000000000E+00  0.45593999997E+02  0.45594000000E+02  0.51100000000E-03 0. -1.
         11   -1    0    0    0    0 -0.00000000000E+00 -0.00000000000E+00 -0.45593999997E+02  0.45594000000E+02  0.51100000000E-03 0.  1.
    9900012    2    1    2    0    0  0.40256206015E+02 -0.57051717810E+01 -0.23005600211E+00  0.50528880070E+02  0.30000061460E+02 0.  0.
         12    1    1    2    0    0 -0.40256206015E+02  0.57051717810E+01  0.23005600211E+00  0.40659119930E+02  0.00000000000E+00 0. -1.
         11    1    3    3    0    0  0.29508298383E+02 -0.36979532187E+01  0.57026673151E+01  0.30280933708E+02  0.51100000000E-03 0. -1.
        -11    1    3    3    0    0  0.62755463288E+01 -0.23555839890E+01 -0.11370139010E+02  0.13198913555E+02  0.51100000000E-03 0.  1.
        -12    1    3    3    0    0  0.44723613029E+01  0.34836542662E+00  0.54374156930E+01  0.70490328069E+01  0.00000000000E+00 0.  1.
</event>
<event>
 7    1  0.5972636E-013  0.5052882E+02  0.7816164E-02  0.1300439E+00
        -11   -1    0    0    0    0  0.00000000000E+00  0.00000000000E+00  0.45593999997E+02  0.45594000000E+02  0.51100000000E-03 0.  1.
         11   -1    0    0    0    0 -0.00000000000E+00 -0.00000000000E+00 -0.45593999997E+02  0.45594000000E+02  0.51100000000E-03 0. -1.
    9900012    2    1    2    0    0 -0.16973405992E+00  0.71256766255E+01  0.40029546609E+02  0.50528822945E+02  0.29999887824E+02 0.  0.
         12    1    1    2    0    0  0.16973405992E+00 -0.71256766255E+01 -0.40029546609E+02  0.40659177055E+02  0.00000000000E+00 0. -1.
         11    1    3    3    0    0  0.13488139310E+02  0.76591929358E+01  0.17093177491E+02  0.23081807890E+02  0.51100000000E-03 0. -1.
        -11    1    3    3    0    0 -0.49783908283E+01  0.13010204582E+01  0.13727605225E+02  0.14660292458E+02  0.51100000000E-03 0.  1.
         12    1    3    3    0    0 -0.86794825413E+01 -0.18345367685E+01  0.92087638931E+01  0.12786722597E+02  0.00000000000E+00 0. -1.
</event>
<event>
 7    1  0.5972636E-013  0.5052886E+02  0.7816164E-02  0.1300439E+00
        -11   -1    0    0    0    0  0.00000000000E+00  0.00000000000E+00  0.45593999997E+02  0.45594000000E+02  0.51100000000E-03 0.  1.
         11   -1    0    0    0    0 -0.00000000000E+00 -0.00000000000E+00 -0.45593999997E+02  0.45594000000E+02  0.51100000000E-03 0. -1.
    9900012    2    1    2    0    0  0.70167541851E+01  0.22040880020E+02  0.33438459145E+02  0.50528858576E+02  0.29999996128E+02 0.  0.
         12    1    1    2    0    0 -0.70167541851E+01 -0.22040880020E+02 -0.33438459145E+02  0.40659141424E+02  0.00000000000E+00 0. -1.
         11    1    3    3    0    0  0.10577163563E+02 -0.27372937957E+01  0.86881007850E+01  0.13958949168E+02  0.51100000000E-03 0. -1.
        -11    1    3    3    0    0 -0.24302953994E+01  0.58002624541E+01  0.13713715417E+01  0.64366171574E+01  0.51100000000E-03 0.  1.
         12    1    3    3    0    0 -0.11301139781E+01  0.18977911361E+02  0.23378986818E+02  0.30133292251E+02  0.00000000000E+00 0. -1.
</event>
<event>
 7    1  0.5972636E-013  0.5052885E+02  0.7816164E-02  0.1300439E+00
        -11   -1    0    0    0    0  0.00000000000E+00  0.00000000000E+00  0.45593999997E+02  0.45594000000E+02  0.51100000000E-03 0.  1.
         11   -1    0    0    0    0 -0.00000000000E+00 -0.00000000000E+00 -0.45593999997E+02  0.45594000000E+02  0.51100000000E-03 0. -1.
    9900012    2    1    2    0    0 -0.25791873152E+02  0.13567014739E+02  0.28352809099E+02  0.50528851049E+02  0.29999973247E+02 0.  0.
         12    1    1    2    0    0  0.25791873152E+02 -0.13567014739E+02 -0.28352809099E+02  0.40659148951E+02  0.00000000000E+00 0. -1.
         11    1    3    3    0    0 -0.73430685117E+00  0.15370896876E+02  0.82009651044E+01  0.17437302148E+02  0.51100000000E-03 0. -1.
        -11    1    3    3    0    0 -0.10558281964E+02 -0.32842233941E+01  0.52260010139E+01  0.12230066565E+02  0.51100000000E-03 0.  1.
         12    1    3    3    0    0 -0.14499284337E+02  0.14803412580E+01  0.14925842981E+02  0.20861482335E+02  0.00000000000E+00 0. -1.
</event>
<event>
 7    1  0.5972636E-013  0.5052885E+02  0.7816164E-02  0.1300439E+00
        -11   -1    0    0    0    0  0.00000000000E+00  0.00000000000E+00  0.45593999997E+02  0.45594000000E+02  0.51100000000E-03 0.  1.
         11   -1    0    0    0    0 -0.00000000000E+00 -0.00000000000E+00 -0.45593999997E+02  0.45594000000E+02  0.51100000000E-03 0. -1.
    9900012    2    1    2    0    0  0.29088063037E+02 -0.17523539759E+02  0.22360154024E+02  0.50528851646E+02  0.29999975063E+02 0.  0.
         12    1    1    2    0    0 -0.29088063037E+02  0.17523539759E+02 -0.22360154024E+02  0.40659148354E+02  0.00000000000E+00 0. -1.
         11    1    3    3    0    0  0.12902701407E+02  0.30422039210E+01 -0.56210336665E+00  0.13268408675E+02  0.51100000000E-03 0. -1.
        -11    1    3    3    0    0  0.64981475743E+01 -0.13725395797E+02  0.54305613030E+01  0.16127721724E+02  0.51100000000E-03 0.  1.
         12    1    3    3    0    0  0.96872140550E+01 -0.68403478834E+01  0.17491696087E+02  0.21132721247E+02  0.00000000000E+00 0. -1.
</event>
<event>
 7    1  0.5972636E-013  0.5052886E+02  0.7816164E-02  0.1300439E+00
        -11   -1    0    0    0    0  0.00000000000E+00  0.00000000000E+00  0.45593999997E+02  0.45594000000E+02  0.51100000000E-03 0.  1.
         11   -1    0    0    0    0 -0.00000000000E+00 -0.00000000000E+00 -0.45593999997E+02  0.45594000000E+02  0.51100000000E-03 0. -1.
    9900012    2    1    2    0    0 -0.11451109825E+02  0.37670914564E+02  0.10145923930E+02  0.50528862125E+02  0.30000006915E+02 0.  0.
         12    1    1    2    0    0  0.11451109825E+02 -0.37670914564E+02 -0.10145923930E+02  0.40659137875E+02  0.00000000000E+00 0. -1.
         11    1    3    3    0    0 -0.15762734247E+02  0.19790599645E+02  0.24242859086E+01  0.25416702927E+02  0.51100000000E-03 0. -1.
        -11    1    3    3    0    0  0.29861658635E+01  0.19035599330E+02  0.10409389371E+02  0.21900379352E+02  0.51100000000E-03 0.  1.
        -12    1    3    3    0    0  0.13254585586E+01 -0.11552844109E+01 -0.26877513495E+01  0.32117798457E+01  0.00000000000E+00 0.  1.
</event>
<event>
 7    1  0.5972636E-013  0.5052885E+02  0.7816164E-02  0.1300439E+00
        -11   -1    0    0    0    0  0.00000000000E+00  0.00000000000E+00  0.45593999997E+02  0.45594000000E+02  0.51100000000E-03 0. -1.
         11   -1    0    0    0    0 -0.00000000000E+00 -0.00000000000E+00 -0.45593999997E+02  0.45594000000E+02  0.51100000000E-03 0.  1.
    9900012    2    1    2    0    0  0.28728160567E+02 -0.21394720386E+02 -0.19238639414E+02  0.50528849536E+02  0.29999968650E+02 0.  0.
         12    1    1    2    0    0 -0.28728160567E+02  0.21394720386E+02  0.19238639414E+02  0.40659150464E+02  0.00000000000E+00 0. -1.
         11    1    3    3    0    0  0.76059518435E+01 -0.78753121618E+01  0.70831077220E+01  0.13039994645E+02  0.51100000000E-03 0. -1.
        -11    1    3    3    0    0  0.12859572169E+02 -0.28299918526E+01 -0.13647861623E+02  0.18964218344E+02  0.51100000000E-03 0.  1.
        -12    1    3    3    0    0  0.82626365546E+01 -0.10689416372E+02 -0.12673885513E+02  0.18524636547E+02  0.00000000000E+00 0.  1.
</event>
<event>
 7    1  0.5972636E-013  0.5052887E+02  0.7816164E-02  0.1300439E+00
        -11   -1    0    0    0    0  0.00000000000E+00  0.00000000000E+00  0.45593999997E+02  0.45594000000E+02  0.51100000000E-03 0. -1.
         11   -1    0    0    0    0 -0.00000000000E+00 -0.00000000000E+00 -0.45593999997E+02  0.45594000000E+02  0.51100000000E-03 0.  1.
    9900012    2    1    2    0    0 -0.96780217933E+00 -0.14957409254E+01 -0.40620085132E+02  0.50528865748E+02  0.30000017928E+02 0.  0.
         12    1    1    2    0    0  0.96780217933E+00  0.14957409254E+01  0.40620085132E+02  0.40659134252E+02  0.00000000000E+00 0. -1.
         11    1    3    3    0    0 -0.11020940843E+02  0.41950665331E-01 -0.39749673829E+01  0.11715940546E+02  0.51100000000E-03 0. -1.
        -11    1    3    3    0    0  0.84471948592E+01  0.20951434113E+01 -0.27448542037E+02  0.28795263276E+02  0.51100000000E-03 0.  1.
         12    1    3    3    0    0  0.16059438040E+01 -0.36328350020E+01 -0.91965757119E+01  0.10017661927E+02  0.00000000000E+00 0. -1.
</event>
<event>
 7    1  0.5972636E-013  0.5052884E+02  0.7816164E-02  0.1300439E+00
        -11   -1    0    0    0    0  0.00000000000E+00  0.00000000000E+00  0.45593999997E+02  0.45594000000E+02  0.51100000000E-03 0.  1.
         11   -1    0    0    0    0 -0.00000000000E+00 -0.00000000000E+00 -0.45593999997E+02  0.45594000000E+02  0.51100000000E-03 0. -1.
    9900012    2    1    2    0    0 -0.26142633325E+02 -0.95416273682E+01  0.29642662546E+02  0.50528839005E+02  0.29999936639E+02 0.  0.
         12    1    1    2    0    0  0.26142633325E+02  0.95416273682E+01 -0.29642662546E+02  0.40659160995E+02  0.00000000000E+00 0. -1.
         11    1    3    3    0    0  0.86009164608E+00 -0.55783420878E+01 -0.31575449631E+01  0.64674375562E+01  0.51100000000E-03 0. -1.
        -11    1    3    3    0    0 -0.62075792848E+01 -0.39360609255E+01  0.14936019548E+02  0.16646660217E+02  0.51100000000E-03 0.  1.
         12    1    3    3    0    0 -0.20795145686E+02 -0.27224354823E-01  0.17864187961E+02  0.27414741231E+02  0.00000000000E+00 0. -1.
</event>
<event>
 7    1  0.5972636E-013  0.5052886E+02  0.7816164E-02  0.1300439E+00
        -11   -1    0    0    0    0  0.00000000000E+00  0.00000000000E+00  0.45593999997E+02  0.45594000000E+02  0.51100000000E-03 0.  1.
         11   -1    0    0    0    0 -0.00000000000E+00 -0.00000000000E+00 -0.45593999997E+02  0.45594000000E+02  0.51100000000E-03 0. -1.
    9900012    2    1    2    0    0 -0.20217463910E+02  0.30872980777E+02  0.17066898648E+02  0.50528858120E+02  0.29999994740E+02 0.  0.
         12    1    1    2    0    0  0.20217463910E+02 -0.30872980777E+02 -0.17066898648E+02  0.40659141880E+02  0.00000000000E+00 0. -1.
         11    1    3    3    0    0 -0.11470990126E+02  0.67744335231E+01 -0.60321178963E+00  0.13335682538E+02  0.51100000000E-03 0. -1.
        -11    1    3    3    0    0  0.34664845571E+00  0.35606652378E+00  0.10861794098E+02  0.10873155926E+02  0.51100000000E-03 0.  1.
        -12    1    3    3    0    0 -0.90931222402E+01  0.23742480730E+02  0.68083163397E+01  0.26320019656E+02  0.00000000000E+00 0.  1.
</event>
<event>
 7    1  0.5972636E-013  0.5052886E+02  0.7816164E-02  0.1300439E+00
        -11   -1    0    0    0    0  0.00000000000E+00  0.00000000000E+00  0.45593999997E+02  0.45594000000E+02  0.51100000000E-03 0.  1.
         11   -1    0    0    0    0 -0.00000000000E+00 -0.00000000000E+00 -0.45593999997E+02  0.45594000000E+02  0.51100000000E-03 0. -1.
    9900012    2    1    2    0    0  0.12261924465E+02 -0.26535502357E+02  0.28260898550E+02  0.50528855103E+02  0.29999985571E+02 0.  0.
         12    1    1    2    0    0 -0.12261924465E+02  0.26535502357E+02 -0.28260898550E+02  0.40659144897E+02  0.00000000000E+00 0. -1.
         11    1    3    3    0    0  0.12370673417E+02  0.72097163220E+00  0.33873983609E+01  0.12846315767E+02  0.51100000000E-03 0. -1.
        -11    1    3    3    0    0  0.13691608751E+01 -0.23358408659E+02  0.17524673933E+02  0.29233611705E+02  0.51100000000E-03 0.  1.
         12    1    3    3    0    0 -0.14779098270E+01 -0.38980653305E+01  0.73488262556E+01  0.84489276309E+01  0.00000000000E+00 0. -1.
</event>
<event>
 7    1  0.5972636E-013  0.5052887E+02  0.7816164E-02  0.1300439E+00
        -11   -1    0    0    0    0  0.00000000000E+00  0.00000000000E+00  0.45593999997E+02  0.45594000000E+02  0.51100000000E-03 0.  1.
         11   -1    0    0    0    0 -0.00000000000E+00 -0.00000000000E+00 -0.45593999997E+02  0.45594000000E+02  0.51100000000E-03 0. -1.
    9900012    2    1    2    0    0  0.15296183733E+01  0.33222614843E+02  0.23389808456E+02  0.50528868074E+02  0.30000024996E+02 0.  0.
         12    1    1    2    0    0 -0.15296183733E+01 -0.33222614843E+02 -0.23389808456E+02  0.40659131926E+02  0.00000000000E+00 0. -1.
         11    1    3    3    0    0  0.73356080184E+01  0.13102746332E+02 -0.43486170994E+01  0.15633412212E+02  0.51100000000E-03 0. -1.
        -11    1    3    3    0    0 -0.24401284295E+01  0.64699723772E+01  0.69876079465E+01  0.98306375373E+01  0.51100000000E-03 0.  1.
         12    1    3    3    0    0 -0.33658612156E+01  0.13649896134E+02  0.20750817609E+02  0.25064818324E+02  0.00000000000E+00 0. -1.
</event>
<event>
 7    1  0.5972636E-013  0.5052888E+02  0.7816164E-02  0.1300439E+00
        -11   -1    0    0    0    0  0.00000000000E+00  0.00000000000E+00  0.45593999997E+02  0.45594000000E+02  0.51100000000E-03 0.  1.
         11   -1    0    0    0    0 -0.00000000000E+00 -0.00000000000E+00 -0.45593999997E+02  0.45594000000E+02  0.51100000000E-03 0. -1.
    9900012    2    1    2    0    0 -0.36025904834E+02  0.18167453203E+02  0.50241656821E+01  0.50528875369E+02  0.30000047172E+02 0.  0.
         12    1    1    2    0    0  0.36025904834E+02 -0.18167453203E+02 -0.50241656821E+01  0.40659124631E+02  0.00000000000E+00 0. -1.
         11    1    3    3    0    0 -0.22612092904E+02  0.38649462372E+01 -0.70721223045E+01  0.24005404997E+02  0.51100000000E-03 0. -1.
        -11    1    3    3    0    0 -0.55604274484E+01  0.52602864088E+01  0.12366711247E+02  0.14543882351E+02  0.51100000000E-03 0.  1.
        -12    1    3    3    0    0 -0.78533844811E+01  0.90422205567E+01 -0.27042326070E+00  0.11979588021E+02  0.00000000000E+00 0.  1.
</event>
<event>
 7    1  0.5972636E-013  0.5052886E+02  0.7816164E-02  0.1300439E+00
        -11   -1    0    0    0    0  0.00000000000E+00  0.00000000000E+00  0.45593999997E+02  0.45594000000E+02  0.51100000000E-03 0.  1.
         11   -1    0    0    0    0 -0.00000000000E+00 -0.00000000000E+00 -0.45593999997E+02  0.45594000000E+02  0.51100000000E-03 0. -1.
    9900012    2    1    2    0    0  0.24246590549E+02 -0.13539589973E+02  0.29697612488E+02  0.50528857887E+02  0.29999994034E+02 0.  0.
         12    1    1    2    0    0 -0.24246590549E+02  0.13539589973E+02 -0.29697612488E+02  0.40659142113E+02  0.00000000000E+00 0. -1.
         11    1    3    3    0    0 -0.32572497874E+01 -0.25225494620E+01  0.28206977007E-01  0.41199184289E+01  0.51100000000E-03 0. -1.
        -11    1    3    3    0    0  0.11774437500E+02 -0.19326438816E+01  0.24927267224E+02  0.27635866955E+02  0.51100000000E-03 0.  1.
        -12    1    3    3    0    0  0.15729402836E+02 -0.90843966292E+01  0.47421382867E+01  0.18773072503E+02  0.00000000000E+00 0.  1.
</event>
<event>
 7    1  0.5972636E-013  0.5052886E+02  0.7816164E-02  0.1300439E+00
        -11   -1    0    0    0    0  0.00000000000E+00  0.00000000000E+00  0.45593999997E+02  0.45594000000E+02  0.51100000000E-03 0.  1.
         11   -1    0    0    0    0 -0.00000000000E+00 -0.00000000000E+00 -0.45593999997E+02  0.45594000000E+02  0.51100000000E-03 0. -1.
    9900012    2    1    2    0    0 -0.32237371550E+01  0.38835579147E+02  0.11600459012E+02  0.50528864025E+02  0.30000012690E+02 0.  0.
         12    1    1    2    0    0  0.32237371550E+01 -0.38835579147E+02 -0.11600459012E+02  0.40659135975E+02  0.00000000000E+00 0. -1.
         11    1    3    3    0    0  0.26959816519E+01  0.65647243716E+01  0.14107254757E+02  0.15791724421E+02  0.51100000000E-03 0. -1.
        -11    1    3    3    0    0 -0.74240039849E+01  0.10717437423E+02 -0.71792393997E+00  0.13057362487E+02  0.51100000000E-03 0.  1.
         12    1    3    3    0    0  0.15042851780E+01  0.21553417353E+02 -0.17888718053E+01  0.21679777116E+02  0.00000000000E+00 0. -1.
</event>
<event>
 7    1  0.5972636E-013  0.5052886E+02  0.7816164E-02  0.1300439E+00
        -11   -1    0    0    0    0  0.00000000000E+00  0.00000000000E+00  0.45593999997E+02  0.45594000000E+02  0.51100000000E-03 0.  1.
         11   -1    0    0    0    0 -0.00000000000E+00 -0.00000000000E+00 -0.45593999997E+02  0.45594000000E+02  0.51100000000E-03 0. -1.
    9900012    2    1    2    0    0  0.32439955461E+02 -0.20546117041E+02  0.13366815004E+02  0.50528863523E+02  0.30000011164E+02 0.  0.
         12    1    1    2    0    0 -0.32439955461E+02  0.20546117041E+02 -0.13366815004E+02  0.40659136477E+02  0.00000000000E+00 0. -1.
         11    1    3    3    0    0  0.11879946833E+02 -0.18061234501E+01  0.15738706209E+02  0.19801567920E+02  0.51100000000E-03 0. -1.
        -11    1    3    3    0    0  0.20133426177E+02 -0.12465410073E+02  0.77956613118E+00  0.23692805269E+02  0.51100000000E-03 0.  1.
         12    1    3    3    0    0  0.42658245004E+00 -0.62745835178E+01 -0.31514573366E+01  0.70344903335E+01  0.00000000000E+00 0. -1.
</event>
<event>
 7    1  0.5972636E-013  0.5052886E+02  0.7816164E-02  0.1300439E+00
        -11   -1    0    0    0    0  0.00000000000E+00  0.00000000000E+00  0.45593999997E+02  0.45594000000E+02  0.51100000000E-03 0. -1.
         11   -1    0    0    0    0 -0.00000000000E+00 -0.00000000000E+00 -0.45593999997E+02  0.45594000000E+02  0.51100000000E-03 0.  1.
    9900012    2    1    2    0    0  0.35515943547E+02 -0.13575158660E+02 -0.14404815479E+02  0.50528857269E+02  0.29999992154E+02 0.  0.
         12    1    1    2    0    0 -0.35515943547E+02  0.13575158660E+02  0.14404815479E+02  0.40659142731E+02  0.00000000000E+00 0. -1.
         11    1    3    3    0    0 -0.14976931642E+01 -0.42341201871E+01 -0.75260608276E+01  0.87642712427E+01  0.51100000000E-03 0. -1.
        -11    1    3    3    0    0  0.36232288744E+02 -0.57372832453E+01 -0.86257542161E+01  0.37684198316E+02  0.51100000000E-03 0.  1.
        -12    1    3    3    0    0  0.78134796694E+00 -0.36037552276E+01  0.17469995644E+01  0.40803877100E+01  0.00000000000E+00 0.  1.
</event>
<event>
 7    1  0.5972636E-013  0.5052886E+02  0.7816164E-02  0.1300439E+00
        -11   -1    0    0    0    0  0.00000000000E+00  0.00000000000E+00  0.45593999997E+02  0.45594000000E+02  0.51100000000E-03 0. -1.
         11   -1    0    0    0    0 -0.00000000000E+00 -0.00000000000E+00 -0.45593999997E+02  0.45594000000E+02  0.51100000000E-03 0.  1.
    9900012    2    1    2    0    0 -0.24538268445E+02 -0.31779489397E+02 -0.64111818192E+01  0.50528858138E+02  0.29999994796E+02 0.  0.
         12    1    1    2    0    0  0.24538268445E+02  0.31779489397E+02  0.64111818192E+01  0.40659141862E+02  0.00000000000E+00 0. -1.
         11    1    3    3    0    0 -0.20201177866E+02 -0.17221114449E+02  0.68847342359E+01  0.27423601802E+02  0.51100000000E-03 0. -1.
        -11    1    3    3    0    0  0.35501418233E+01 -0.74674867523E+01 -0.63772482988E+01  0.10442038187E+02  0.51100000000E-03 0.  1.
         12    1    3    3    0    0 -0.78872324023E+01 -0.70908881958E+01 -0.69186677563E+01  0.12663218149E+02  0.00000000000E+00 0. -1.
</event>
<event>
 7    1  0.5972636E-013  0.5052886E+02  0.7816164E-02  0.1300439E+00
        -11   -1    0    0    0    0  0.00000000000E+00  0.00000000000E+00  0.45593999997E+02  0.45594000000E+02  0.51100000000E-03 0. -1.
         11   -1    0    0    0    0 -0.00000000000E+00 -0.00000000000E+00 -0.45593999997E+02  0.45594000000E+02  0.51100000000E-03 0.  1.
    9900012    2    1    2    0    0  0.18653802351E+02  0.21319902921E+02  0.29166133826E+02  0.50528856316E+02  0.29999989259E+02 0.  0.
         12    1    1    2    0    0 -0.18653802351E+02 -0.21319902921E+02 -0.29166133826E+02  0.40659143684E+02  0.00000000000E+00 0. -1.
         11    1    3    3    0    0  0.17174098314E+02  0.88857420845E+01  0.20063963656E+01  0.19440465322E+02  0.51100000000E-03 0.  1.
        -11    1    3    3    0    0  0.16821853833E+00  0.59442677238E+01  0.21719832603E+02  0.22519186149E+02  0.51100000000E-03 0. -1.
        -12    1    3    3    0    0  0.13114854990E+01  0.64898931131E+01  0.54399048573E+01  0.85692048459E+01  0.00000000000E+00 0.  1.
</event>
<event>
 7    1  0.5972636E-013  0.5052883E+02  0.7816164E-02  0.1300439E+00
        -11   -1    0    0    0    0  0.00000000000E+00  0.00000000000E+00  0.45593999997E+02  0.45594000000E+02  0.51100000000E-03 0. -1.
         11   -1    0    0    0    0 -0.00000000000E+00 -0.00000000000E+00 -0.45593999997E+02  0.45594000000E+02  0.51100000000E-03 0.  1.
    9900012    2    1    2    0    0 -0.17406551774E+02  0.16542542768E+02 -0.32810433208E+02  0.50528827687E+02  0.29999902237E+02 0.  0.
         12    1    1    2    0    0  0.17406551774E+02 -0.16542542768E+02  0.32810433208E+02  0.40659172313E+02  0.00000000000E+00 0. -1.
         11    1    3    3    0    0  0.10038496341E+00  0.11005810930E+02 -0.56701227933E+01  0.12380962972E+02  0.51100000000E-03 0. -1.
        -11    1    3    3    0    0 -0.11300943081E+02  0.52604502501E+01 -0.29080723793E+02  0.31639724208E+02  0.51100000000E-03 0.  1.
        -12    1    3    3    0    0 -0.62059936558E+01  0.27628158716E+00  0.19404133781E+01  0.65081405063E+01  0.00000000000E+00 0.  1.
</event>
<event>
 7    1  0.5972636E-013  0.5052887E+02  0.7816164E-02  0.1300439E+00
        -11   -1    0    0    0    0  0.00000000000E+00  0.00000000000E+00  0.45593999997E+02  0.45594000000E+02  0.51100000000E-03 0. -1.
         11   -1    0    0    0    0 -0.00000000000E+00 -0.00000000000E+00 -0.45593999997E+02  0.45594000000E+02  0.51100000000E-03 0.  1.
    9900012    2    1    2    0    0 -0.33806429230E+02  0.20762846155E+02 -0.88991206419E+01  0.50528870817E+02  0.30000033336E+02 0.  0.
         12    1    1    2    0    0  0.33806429230E+02 -0.20762846155E+02  0.88991206419E+01  0.40659129183E+02  0.00000000000E+00 0. -1.
         11    1    3    3    0    0 -0.23535510467E+02  0.15657591758E+02  0.68779103615E+01  0.29092715305E+02  0.51100000000E-03 0. -1.
        -11    1    3    3    0    0 -0.66160310867E+01 -0.15506781681E+01 -0.88495577555E+01  0.11157559897E+02  0.51100000000E-03 0.  1.
         12    1    3    3    0    0 -0.36548876757E+01  0.66559325643E+01 -0.69274732478E+01  0.10278595615E+02  0.00000000000E+00 0. -1.
</event>
<event>
 7    1  0.5972636E-013  0.5052887E+02  0.7816164E-02  0.1300439E+00
        -11   -1    0    0    0    0  0.00000000000E+00  0.00000000000E+00  0.45593999997E+02  0.45594000000E+02  0.51100000000E-03 0.  1.
         11   -1    0    0    0    0 -0.00000000000E+00 -0.00000000000E+00 -0.45593999997E+02  0.45594000000E+02  0.51100000000E-03 0. -1.
    9900012    2    1    2    0    0  0.91030632119E+01 -0.21422986392E+02  0.33336992900E+02  0.50528865708E+02  0.30000017805E+02 0.  0.
         12    1    1    2    0    0 -0.91030632119E+01  0.21422986392E+02 -0.33336992900E+02  0.40659134292E+02  0.00000000000E+00 0. -1.
         11    1    3    3    0    0  0.58781244349E+01  0.23892284014E+01 -0.20165808520E+01  0.66578793786E+01  0.51100000000E-03 0. -1.
        -11    1    3    3    0    0  0.66016183808E+01 -0.18461332760E+02  0.25610101740E+02  0.32253363916E+02  0.51100000000E-03 0.  1.
         12    1    3    3    0    0 -0.33766796038E+01 -0.53508820334E+01  0.97434720118E+01  0.11617622413E+02  0.00000000000E+00 0. -1.
</event>
<event>
 7    1  0.5972636E-013  0.5052887E+02  0.7816164E-02  0.1300439E+00
        -11   -1    0    0    0    0  0.00000000000E+00  0.00000000000E+00  0.45593999997E+02  0.45594000000E+02  0.51100000000E-03 0.  1.
         11   -1    0    0    0    0 -0.00000000000E+00 -0.00000000000E+00 -0.45593999997E+02  0.45594000000E+02  0.51100000000E-03 0. -1.
    9900012    2    1    2    0    0 -0.11227006988E+02 -0.56113393941E+01  0.38673399052E+02  0.50528872981E+02  0.30000039912E+02 0.  0.
         12    1    1    2    0    0  0.11227006988E+02  0.56113393941E+01 -0.38673399052E+02  0.40659127019E+02  0.00000000000E+00 0. -1.
         11    1    3    3    0    0  0.81111440398E+00 -0.44798080703E+01  0.12341020848E+01  0.47169476507E+01  0.51100000000E-03 0. -1.
        -11    1    3    3    0    0 -0.18819092767E+02  0.18427243148E+01  0.25170857058E+02  0.31482152575E+02  0.51100000000E-03 0.  1.
        -12    1    3    3    0    0  0.67809713747E+01 -0.29742556387E+01  0.12268439910E+02  0.14329772755E+02  0.00000000000E+00 0.  1.
</event>
<event>
 7    1  0.5972636E-013  0.5052886E+02  0.7816164E-02  0.1300439E+00
        -11   -1    0    0    0    0  0.00000000000E+00  0.00000000000E+00  0.45593999997E+02  0.45594000000E+02  0.51100000000E-03 0.  1.
         11   -1    0    0    0    0 -0.00000000000E+00 -0.00000000000E+00 -0.45593999997E+02  0.45594000000E+02  0.51100000000E-03 0. -1.
    9900012    2    1    2    0    0  0.91337086610E+01 -0.79858966982E+01  0.38806780134E+02  0.50528863704E+02  0.30000011715E+02 0.  0.
         12    1    1    2    0    0 -0.91337086610E+01  0.79858966982E+01 -0.38806780134E+02  0.40659136296E+02  0.00000000000E+00 0. -1.
         11    1    3    3    0    0  0.99878889432E+01 -0.10020385684E+02  0.13029361541E+02  0.19233572659E+02  0.51100000000E-03 0. -1.
        -11    1    3    3    0    0 -0.54356243491E+01  0.57690793909E+01  0.42964868792E+01  0.90159907303E+01  0.51100000000E-03 0.  1.
        -12    1    3    3    0    0  0.45814440669E+01 -0.37345904050E+01  0.21480931713E+02  0.22279300314E+02  0.00000000000E+00 0.  1.
</event>
<event>
 7    1  0.5972636E-013  0.5052886E+02  0.7816164E-02  0.1300439E+00
        -11   -1    0    0    0    0  0.00000000000E+00  0.00000000000E+00  0.45593999997E+02  0.45594000000E+02  0.51100000000E-03 0.  1.
         11   -1    0    0    0    0 -0.00000000000E+00 -0.00000000000E+00 -0.45593999997E+02  0.45594000000E+02  0.51100000000E-03 0. -1.
    9900012    2    1    2    0    0 -0.11598210452E+02 -0.30280920526E+02  0.24529837809E+02  0.50528861095E+02  0.30000003783E+02 0.  0.
         12    1    1    2    0    0  0.11598210452E+02  0.30280920526E+02 -0.24529837809E+02  0.40659138905E+02  0.00000000000E+00 0. -1.
         11    1    3    3    0    0 -0.38673734097E+01  0.44783279210E+00 -0.40324190357E+01  0.56051346853E+01  0.51100000000E-03 0. -1.
        -11    1    3    3    0    0 -0.96410564748E+01 -0.29161471788E+02  0.21634486377E+02  0.37568502869E+02  0.51100000000E-03 0.  1.
        -12    1    3    3    0    0  0.19102194321E+01 -0.15672815302E+01  0.69277704675E+01  0.73552235400E+01  0.00000000000E+00 0.  1.
</event>
<event>
 7    1  0.5972636E-013  0.5052886E+02  0.7816164E-02  0.1300439E+00
        -11   -1    0    0    0    0  0.00000000000E+00  0.00000000000E+00  0.45593999997E+02  0.45594000000E+02  0.51100000000E-03 0.  1.
         11   -1    0    0    0    0 -0.00000000000E+00 -0.00000000000E+00 -0.45593999997E+02  0.45594000000E+02  0.51100000000E-03 0. -1.
    9900012    2    1    2    0    0  0.27993879433E+02  0.23983620779E+01  0.29389728604E+02  0.50528861128E+02  0.30000003885E+02 0.  0.
         12    1    1    2    0    0 -0.27993879433E+02 -0.23983620779E+01 -0.29389728604E+02  0.40659138872E+02  0.00000000000E+00 0. -1.
         11    1    3    3    0    0  0.22462820072E+01  0.90774574351E+01  0.77233091659E+01  0.12128294236E+02  0.51100000000E-03 0. -1.
        -11    1    3    3    0    0  0.17477033157E+02 -0.11798339871E+02  0.18825624184E+02  0.28267501443E+02  0.51100000000E-03 0.  1.
        -12    1    3    3    0    0  0.82705642685E+01  0.51192445135E+01  0.28407952545E+01  0.10133065449E+02  0.00000000000E+00 0.  1.
</event>
<event>
 7    1  0.5972636E-013  0.5052885E+02  0.7816164E-02  0.1300439E+00
        -11   -1    0    0    0    0  0.00000000000E+00  0.00000000000E+00  0.45593999997E+02  0.45594000000E+02  0.51100000000E-03 0. -1.
         11   -1    0    0    0    0 -0.00000000000E+00 -0.00000000000E+00 -0.45593999997E+02  0.45594000000E+02  0.51100000000E-03 0.  1.
    9900012    2    1    2    0    0  0.15651343986E+02  0.27362995135E+02 -0.25680112409E+02  0.50528852878E+02  0.29999978809E+02 0.  0.
         12    1    1    2    0    0 -0.15651343986E+02 -0.27362995135E+02  0.25680112409E+02  0.40659147122E+02  0.00000000000E+00 0. -1.
         11    1    3    3    0    0  0.21394731493E+02  0.25176001242E+02 -0.12429892164E+02  0.35299685461E+02  0.51100000000E-03 0. -1.
        -11    1    3    3    0    0 -0.66447121159E+00  0.16527648422E+01 -0.66467835821E+01  0.68813433182E+01  0.51100000000E-03 0.  1.
         12    1    3    3    0    0 -0.50789162959E+01  0.53422905108E+00 -0.66034366637E+01  0.83478240992E+01  0.00000000000E+00 0. -1.
</event>
<event>
 7    1  0.5972636E-013  0.5052886E+02  0.7816164E-02  0.1300439E+00
        -11   -1    0    0    0    0  0.00000000000E+00  0.00000000000E+00  0.45593999997E+02  0.45594000000E+02  0.51100000000E-03 0. -1.
         11   -1    0    0    0    0 -0.00000000000E+00 -0.00000000000E+00 -0.45593999997E+02  0.45594000000E+02  0.51100000000E-03 0.  1.
    9900012    2    1    2    0    0 -0.13689249786E+01 -0.25819406322E+02 -0.31379135962E+02  0.50528857459E+02  0.29999992732E+02 0.  0.
         12    1    1    2    0    0  0.13689249786E+01  0.25819406322E+02  0.31379135962E+02  0.40659142541E+02  0.00000000000E+00 0. -1.
         11    1    3    3    0    0 -0.11246104019E+01 -0.42086234387E+00  0.41755084312E+01  0.43447375742E+01  0.51100000000E-03 0. -1.
        -11    1    3    3    0    0 -0.37451920085E+00 -0.19060743615E+02 -0.34956026716E+02  0.39816780581E+02  0.51100000000E-03 0.  1.
        -12    1    3    3    0    0  0.13020462410E+00 -0.63378003635E+01 -0.59861767776E+00  0.63673393043E+01  0.00000000000E+00 0.  1.
</event>
<event>
 7    1  0.5972636E-013  0.5052884E+02  0.7816164E-02  0.1300439E+00
        -11   -1    0    0    0    0  0.00000000000E+00  0.00000000000E+00  0.45593999997E+02  0.45594000000E+02  0.51100000000E-03 0.  1.
         11   -1    0    0    0    0 -0.00000000000E+00 -0.00000000000E+00 -0.45593999997E+02  0.45594000000E+02  0.51100000000E-03 0. -1.
    9900012    2    1    2    0    0  0.93598816753E+00  0.26139302271E+02  0.31129211899E+02  0.50528843214E+02  0.29999949434E+02 0.  0.
         12    1    1    2    0    0 -0.93598816753E+00 -0.26139302271E+02 -0.31129211899E+02  0.40659156786E+02  0.00000000000E+00 0. -1.
         11    1    3    3    0    0 -0.59860240503E+01  0.90028828045E+01  0.38469529861E+01  0.11475340093E+02  0.51100000000E-03 0. -1.
        -11    1    3    3    0    0  0.12722252935E+02  0.17800169681E+02  0.19377105698E+02  0.29226255078E+02  0.51100000000E-03 0.  1.
        -12    1    3    3    0    0 -0.58002407175E+01 -0.66375021487E+00  0.79051532155E+01  0.98272480426E+01  0.00000000000E+00 0.  1.
</event>
<event>
 7    1  0.5972636E-013  0.5052886E+02  0.7816164E-02  0.1300439E+00
        -11   -1    0    0    0    0  0.00000000000E+00  0.00000000000E+00  0.45593999997E+02  0.45594000000E+02  0.51100000000E-03 0.  1.
         11   -1    0    0    0    0 -0.00000000000E+00 -0.00000000000E+00 -0.45593999997E+02  0.45594000000E+02  0.51100000000E-03 0. -1.
    9900012    2    1    2    0    0 -0.14679763734E+02 -0.36723469911E+02 -0.94370069317E+01  0.50528858280E+02  0.29999995226E+02 0.  0.
         12    1    1    2    0    0  0.14679763734E+02  0.36723469911E+02  0.94370069317E+01  0.40659141720E+02  0.00000000000E+00 0. -1.
         11    1    3    3    0    0 -0.20271069872E+01  0.28137795411E+01  0.22338740110E+01  0.41251316829E+01  0.51100000000E-03 0. -1.
        -11    1    3    3    0    0 -0.10772944892E+02 -0.37679378267E+02 -0.53501557202E+01  0.39552699715E+02  0.51100000000E-03 0.  1.
        -12    1    3    3    0    0 -0.18797118545E+01 -0.18578711855E+01 -0.63207252225E+01  0.68510268819E+01  0.00000000000E+00 0.  1.
</event>
<event>
 7    1  0.5972636E-013  0.5052886E+02  0.7816164E-02  0.1300439E+00
        -11   -1    0    0    0    0  0.00000000000E+00  0.00000000000E+00  0.45593999997E+02  0.45594000000E+02  0.51100000000E-03 0. -1.
         11   -1    0    0    0    0 -0.00000000000E+00 -0.00000000000E+00 -0.45593999997E+02  0.45594000000E+02  0.51100000000E-03 0.  1.
    9900012    2    1    2    0    0 -0.29013854177E+02 -0.27781400726E+02  0.62893205552E+01  0.50528861869E+02  0.30000006138E+02 0.  0.
         12    1    1    2    0    0  0.29013854177E+02  0.27781400726E+02 -0.62893205552E+01  0.40659138131E+02  0.00000000000E+00 0. -1.
         11    1    3    3    0    0  0.12386150818E+01  0.65507514672E+00 -0.76678418350E+00  0.15972629758E+01  0.51100000000E-03 0. -1.
        -11    1    3    3    0    0 -0.34186565821E+02 -0.21458051205E+02  0.50877556581E+01  0.40682361068E+02  0.51100000000E-03 0.  1.
        -12    1    3    3    0    0  0.39340965624E+01 -0.69784246677E+01  0.19683490806E+01  0.82492378259E+01  0.00000000000E+00 0.  1.
</event>
<event>
 7    1  0.5972636E-013  0.5052887E+02  0.7816164E-02  0.1300439E+00
        -11   -1    0    0    0    0  0.00000000000E+00  0.00000000000E+00  0.45593999997E+02  0.45594000000E+02  0.51100000000E-03 0.  1.
         11   -1    0    0    0    0 -0.00000000000E+00 -0.00000000000E+00 -0.45593999997E+02  0.45594000000E+02  0.51100000000E-03 0. -1.
    9900012    2    1    2    0    0  0.21562084114E+02  0.15296588847E+02  0.30891025482E+02  0.50528873632E+02  0.30000041892E+02 0.  0.
         12    1    1    2    0    0 -0.21562084114E+02 -0.15296588847E+02 -0.30891025482E+02  0.40659126368E+02  0.00000000000E+00 0. -1.
         11    1    3    3    0    0  0.69892033401E+01  0.17691888923E+02  0.25438793952E+02  0.31764510621E+02  0.51100000000E-03 0. -1.
        -11    1    3    3    0    0  0.10473606301E+02 -0.54179487872E+01  0.66422151917E+01  0.13534017176E+02  0.51100000000E-03 0.  1.
        -12    1    3    3    0    0  0.40992744720E+01  0.30226487117E+01 -0.11899836624E+01  0.52303458344E+01  0.00000000000E+00 0.  1.
</event>
<event>
 7    1  0.5972636E-013  0.5052883E+02  0.7816164E-02  0.1300439E+00
        -11   -1    0    0    0    0  0.00000000000E+00  0.00000000000E+00  0.45593999997E+02  0.45594000000E+02  0.51100000000E-03 0.  1.
         11   -1    0    0    0    0 -0.00000000000E+00 -0.00000000000E+00 -0.45593999997E+02  0.45594000000E+02  0.51100000000E-03 0. -1.
    9900012    2    1    2    0    0  0.13652221319E+02 -0.14900782115E+02  0.35281032546E+02  0.50528834833E+02  0.29999923958E+02 0.  0.
         12    1    1    2    0    0 -0.13652221319E+02  0.14900782115E+02 -0.35281032546E+02  0.40659165167E+02  0.00000000000E+00 0. -1.
         11    1    3    3    0    0 -0.87129937407E+01 -0.77016217829E+01  0.17243894336E+02  0.20798632891E+02  0.51100000000E-03 0. -1.
        -11    1    3    3    0    0  0.12744844918E+02 -0.50376040189E+01  0.93608356811E+01  0.16596197491E+02  0.51100000000E-03 0.  1.
         12    1    3    3    0    0  0.96203701414E+01 -0.21615563132E+01  0.86763025289E+01  0.13134004451E+02  0.00000000000E+00 0. -1.
</event>
<event>
 7    1  0.5972636E-013  0.5052885E+02  0.7816164E-02  0.1300439E+00
        -11   -1    0    0    0    0  0.00000000000E+00  0.00000000000E+00  0.45593999997E+02  0.45594000000E+02  0.51100000000E-03 0.  1.
         11   -1    0    0    0    0 -0.00000000000E+00 -0.00000000000E+00 -0.45593999997E+02  0.45594000000E+02  0.51100000000E-03 0. -1.
    9900012    2    1    2    0    0  0.97928946231E+01 -0.16029197000E+02  0.36060093606E+02  0.50528852291E+02  0.29999977024E+02 0.  0.
         12    1    1    2    0    0 -0.97928946231E+01  0.16029197000E+02 -0.36060093606E+02  0.40659147709E+02  0.00000000000E+00 0. -1.
         11    1    3    3    0    0 -0.42747441158E+01 -0.11455188568E+02  0.16915951261E+02  0.20872091168E+02  0.51100000000E-03 0. -1.
        -11    1    3    3    0    0  0.64842461821E+01  0.49910384639E+01  0.16860193977E+01  0.83545541574E+01  0.51100000000E-03 0.  1.
        -12    1    3    3    0    0  0.75833925568E+01 -0.95650468968E+01  0.17458122946E+02  0.21302206966E+02  0.00000000000E+00 0.  1.
</event>
<event>
 7    1  0.5972636E-013  0.5052886E+02  0.7816164E-02  0.1300439E+00
        -11   -1    0    0    0    0  0.00000000000E+00  0.00000000000E+00  0.45593999997E+02  0.45594000000E+02  0.51100000000E-03 0. -1.
         11   -1    0    0    0    0 -0.00000000000E+00 -0.00000000000E+00 -0.45593999997E+02  0.45594000000E+02  0.51100000000E-03 0.  1.
    9900012    2    1    2    0    0  0.28354980891E+02 -0.12862813772E+02  0.26147817508E+02  0.50528864742E+02  0.30000014871E+02 0.  0.
         12    1    1    2    0    0 -0.28354980891E+02  0.12862813772E+02 -0.26147817508E+02  0.40659135258E+02  0.00000000000E+00 0. -1.
         11    1    3    3    0    0 -0.32821061334E+01 -0.42788127441E+00  0.72921009211E+01  0.80081233232E+01  0.51100000000E-03 0. -1.
        -11    1    3    3    0    0  0.27738549030E+02 -0.86717469560E+01  0.21822254019E+02  0.36343322197E+02  0.51100000000E-03 0.  1.
        -12    1    3    3    0    0  0.38985379942E+01 -0.37631855418E+01 -0.29665374319E+01  0.61774192224E+01  0.00000000000E+00 0.  1.
</event>
<event>
 7    1  0.5972636E-013  0.5052885E+02  0.7816164E-02  0.1300439E+00
        -11   -1    0    0    0    0  0.00000000000E+00  0.00000000000E+00  0.45593999997E+02  0.45594000000E+02  0.51100000000E-03 0.  1.
         11   -1    0    0    0    0 -0.00000000000E+00 -0.00000000000E+00 -0.45593999997E+02  0.45594000000E+02  0.51100000000E-03 0. -1.
    9900012    2    1    2    0    0  0.34839901998E+02 -0.16761028195E+02  0.12586317011E+02  0.50528853264E+02  0.29999979981E+02 0.  0.
         12    1    1    2    0    0 -0.34839901998E+02  0.16761028195E+02 -0.12586317011E+02  0.40659146736E+02  0.00000000000E+00 0. -1.
         11    1    3    3    0    0  0.10070872600E+02  0.83876869085E+01  0.43933376824E+00  0.13113686782E+02  0.51100000000E-03 0. -1.
        -11    1    3    3    0    0  0.69804353333E+01 -0.57277607628E+01  0.25238329581E+01  0.93756841809E+01  0.51100000000E-03 0.  1.
         12    1    3    3    0    0  0.17788594065E+02 -0.19420954340E+02  0.96231502843E+01  0.28039482301E+02  0.00000000000E+00 0. -1.
</event>
<event>
 7    1  0.5972636E-013  0.5052887E+02  0.7816164E-02  0.1300439E+00
        -11   -1    0    0    0    0  0.00000000000E+00  0.00000000000E+00  0.45593999997E+02  0.45594000000E+02  0.51100000000E-03 0. -1.
         11   -1    0    0    0    0 -0.00000000000E+00 -0.00000000000E+00 -0.45593999997E+02  0.45594000000E+02  0.51100000000E-03 0.  1.
    9900012    2    1    2    0    0  0.14176158718E+02  0.10775484888E+02 -0.36552573359E+02  0.50528866097E+02  0.30000018988E+02 0.  0.
         12    1    1    2    0    0 -0.14176158718E+02 -0.10775484888E+02  0.36552573359E+02  0.40659133903E+02  0.00000000000E+00 0. -1.
         11    1    3    3    0    0  0.86154975667E+01  0.60862322717E+01 -0.13462768726E+02  0.17103074684E+02  0.51100000000E-03 0. -1.
        -11    1    3    3    0    0 -0.90666194090E+01  0.15870160477E+01 -0.93116136263E+01  0.13093065188E+02  0.51100000000E-03 0.  1.
        -12    1    3    3    0    0  0.14627280561E+02  0.31022365685E+01 -0.13778191006E+02  0.20332726225E+02  0.00000000000E+00 0.  1.
</event>
<event>
 7    1  0.5972636E-013  0.5052887E+02  0.7816164E-02  0.1300439E+00
        -11   -1    0    0    0    0  0.00000000000E+00  0.00000000000E+00  0.45593999997E+02  0.45594000000E+02  0.51100000000E-03 0. -1.
         11   -1    0    0    0    0 -0.00000000000E+00 -0.00000000000E+00 -0.45593999997E+02  0.45594000000E+02  0.51100000000E-03 0.  1.
    9900012    2    1    2    0    0  0.30439704186E+02 -0.26326146694E+02  0.57899195064E+01  0.50528871153E+02  0.30000034358E+02 0.  0.
         12    1    1    2    0    0 -0.30439704186E+02  0.26326146694E+02 -0.57899195064E+01  0.40659128847E+02  0.00000000000E+00 0. -1.
         11    1    3    3    0    0 -0.84944520010E+00  0.31889064857E+01 -0.14938229394E+01  0.36224562051E+01  0.51100000000E-03 0. -1.
        -11    1    3    3    0    0  0.21746329772E+02 -0.14210587852E+02  0.11460213916E+02  0.28393312046E+02  0.51100000000E-03 0.  1.
        -12    1    3    3    0    0  0.95428196138E+01 -0.15304465327E+02 -0.41764714702E+01  0.18513102902E+02  0.00000000000E+00 0.  1.
</event>
<event>
 7    1  0.5972636E-013  0.5052884E+02  0.7816164E-02  0.1300439E+00
        -11   -1    0    0    0    0  0.00000000000E+00  0.00000000000E+00  0.45593999997E+02  0.45594000000E+02  0.51100000000E-03 0.  1.
         11   -1    0    0    0    0 -0.00000000000E+00 -0.00000000000E+00 -0.45593999997E+02  0.45594000000E+02  0.51100000000E-03 0. -1.
    9900012    2    1    2    0    0  0.96740754172E+01  0.31451488603E+02  0.23882701538E+02  0.50528839860E+02  0.29999939239E+02 0.  0.
         12    1    1    2    0    0 -0.96740754172E+01 -0.31451488603E+02 -0.23882701538E+02  0.40659160140E+02  0.00000000000E+00 0. -1.
         11    1    3    3    0    0  0.19667564751E+01  0.30195960774E+01 -0.13942903946E+01  0.38639536059E+01  0.51100000000E-03 0. -1.
        -11    1    3    3    0    0  0.68258832190E+01  0.25475873500E+02  0.30670801633E+02  0.40451339723E+02  0.51100000000E-03 0.  1.
        -12    1    3    3    0    0  0.88143572304E+00  0.29560190254E+01 -0.53938097005E+01  0.62135465314E+01  0.00000000000E+00 0.  1.
</event>
<event>
 7    1  0.5972636E-013  0.5052887E+02  0.7816164E-02  0.1300439E+00
        -11   -1    0    0    0    0  0.00000000000E+00  0.00000000000E+00  0.45593999997E+02  0.45594000000E+02  0.51100000000E-03 0.  1.
         11   -1    0    0    0    0 -0.00000000000E+00 -0.00000000000E+00 -0.45593999997E+02  0.45594000000E+02  0.51100000000E-03 0. -1.
    9900012    2    1    2    0    0 -0.28778090795E+00 -0.26320475002E+02  0.30988942545E+02  0.50528870863E+02  0.30000033474E+02 0.  0.
         12    1    1    2    0    0  0.28778090795E+00  0.26320475002E+02 -0.30988942545E+02  0.40659129137E+02  0.00000000000E+00 0. -1.
         11    1    3    3    0    0 -0.11711569275E+02 -0.48601710208E+01  0.50162594872E+01  0.13636164297E+02  0.51100000000E-03 0. -1.
        -11    1    3    3    0    0  0.91506113492E+01 -0.71526358829E+01  0.99716729023E+01  0.15307780664E+02  0.51100000000E-03 0.  1.
        -12    1    3    3    0    0  0.22731770179E+01 -0.14307668098E+02  0.16001010155E+02  0.21584925901E+02  0.00000000000E+00 0.  1.
</event>
<event>
 7    1  0.5972636E-013  0.5052886E+02  0.7816164E-02  0.1300439E+00
        -11   -1    0    0    0    0  0.00000000000E+00  0.00000000000E+00  0.45593999997E+02  0.45594000000E+02  0.51100000000E-03 0. -1.
         11   -1    0    0    0    0 -0.00000000000E+00 -0.00000000000E+00 -0.45593999997E+02  0.45594000000E+02  0.51100000000E-03 0.  1.
    9900012    2    1    2    0    0  0.25479406417E+02 -0.45760268049E+01 -0.31353232192E+02  0.50528863984E+02  0.30000012565E+02 0.  0.
         12    1    1    2    0    0 -0.25479406417E+02  0.45760268049E+01  0.31353232192E+02  0.40659136016E+02  0.00000000000E+00 0. -1.
         11    1    3    3    0    0  0.21448882618E+02  0.71363698895E+00 -0.12218371925E+02  0.24695190950E+02  0.51100000000E-03 0. -1.
        -11    1    3    3    0    0  0.42960014234E+01 -0.75666133670E+01 -0.21094044207E+02  0.22818149955E+02  0.51100000000E-03 0.  1.
        -12    1    3    3    0    0 -0.26547762465E+00  0.22769495732E+01  0.19591839395E+01  0.30155230784E+01  0.00000000000E+00 0.  1.
</event>
<event>
 7    1  0.5972636E-013  0.5052885E+02  0.7816164E-02  0.1300439E+00
        -11   -1    0    0    0    0  0.00000000000E+00  0.00000000000E+00  0.45593999997E+02  0.45594000000E+02  0.51100000000E-03 0.  1.
         11   -1    0    0    0    0 -0.00000000000E+00 -0.00000000000E+00 -0.45593999997E+02  0.45594000000E+02  0.51100000000E-03 0. -1.
    9900012    2    1    2    0    0  0.24547688380E+02  0.22194349517E+02  0.23621772218E+02  0.50528852468E+02  0.29999977562E+02 0.  0.
         12    1    1    2    0    0 -0.24547688380E+02 -0.22194349517E+02 -0.23621772218E+02  0.40659147532E+02  0.00000000000E+00 0. -1.
         11    1    3    3    0    0  0.45018273596E+01  0.81846527262E+01  0.20774542986E+02  0.22777985564E+02  0.51100000000E-03 0.  1.
        -11    1    3    3    0    0  0.19612347502E+02  0.10596317299E+02  0.59987926109E+01  0.23084878772E+02  0.51100000000E-03 0. -1.
         12    1    3    3    0    0  0.43351351842E+00  0.34133794910E+01 -0.31515633787E+01  0.46659881322E+01  0.00000000000E+00 0. -1.
</event>
<event>
 7    1  0.5972636E-013  0.5052885E+02  0.7816164E-02  0.1300439E+00
        -11   -1    0    0    0    0  0.00000000000E+00  0.00000000000E+00  0.45593999997E+02  0.45594000000E+02  0.51100000000E-03 0.  1.
         11   -1    0    0    0    0 -0.00000000000E+00 -0.00000000000E+00 -0.45593999997E+02  0.45594000000E+02  0.51100000000E-03 0. -1.
    9900012    2    1    2    0    0 -0.99577919708E+01  0.17796767329E+02  0.35175051453E+02  0.50528846135E+02  0.29999958311E+02 0.  0.
         12    1    1    2    0    0  0.99577919708E+01 -0.17796767329E+02 -0.35175051453E+02  0.40659153865E+02  0.00000000000E+00 0. -1.
         11    1    3    3    0    0 -0.10106738292E+02  0.54368311696E+01  0.21054176042E+01  0.11667822231E+02  0.51100000000E-03 0. -1.
        -11    1    3    3    0    0 -0.20991284796E+01  0.15895829121E+02  0.23908405128E+02  0.28787072791E+02  0.51100000000E-03 0.  1.
        -12    1    3    3    0    0  0.22480748006E+01 -0.35358929618E+01  0.91612287207E+01  0.10073951113E+02  0.00000000000E+00 0.  1.
</event>
<event>
 7    1  0.5972636E-013  0.5052886E+02  0.7816164E-02  0.1300439E+00
        -11   -1    0    0    0    0  0.00000000000E+00  0.00000000000E+00  0.45593999997E+02  0.45594000000E+02  0.51100000000E-03 0.  1.
         11   -1    0    0    0    0 -0.00000000000E+00 -0.00000000000E+00 -0.45593999997E+02  0.45594000000E+02  0.51100000000E-03 0. -1.
    9900012    2    1    2    0    0 -0.14603572502E+02  0.27844921149E+02  0.25779086905E+02  0.50528864676E+02  0.30000014670E+02 0.  0.
         12    1    1    2    0    0  0.14603572502E+02 -0.27844921149E+02 -0.25779086905E+02  0.40659135324E+02  0.00000000000E+00 0. -1.
         11    1    3    3    0    0  0.33613375628E+01  0.14036805300E+02  0.14754972531E+02  0.20640729344E+02  0.51100000000E-03 0. -1.
        -11    1    3    3    0    0 -0.80573251915E+01  0.20166213153E+01 -0.32214703958E+01  0.89087104871E+01  0.51100000000E-03 0.  1.
         12    1    3    3    0    0 -0.99075848738E+01  0.11791494534E+02  0.14245584770E+02  0.20979424845E+02  0.00000000000E+00 0. -1.
</event>
<event>
 7    1  0.5972636E-013  0.5052885E+02  0.7816164E-02  0.1300439E+00
        -11   -1    0    0    0    0  0.00000000000E+00  0.00000000000E+00  0.45593999997E+02  0.45594000000E+02  0.51100000000E-03 0.  1.
         11   -1    0    0    0    0 -0.00000000000E+00 -0.00000000000E+00 -0.45593999997E+02  0.45594000000E+02  0.51100000000E-03 0. -1.
    9900012    2    1    2    0    0  0.63461964824E+01 -0.24729846815E+02  0.31643746131E+02  0.50528853397E+02  0.29999980385E+02 0.  0.
         12    1    1    2    0    0 -0.63461964824E+01  0.24729846815E+02 -0.31643746131E+02  0.40659146603E+02  0.00000000000E+00 0. -1.
         11    1    3    3    0    0  0.61578205262E+01 -0.62554642278E+01 -0.36073947082E+01  0.94901466364E+01  0.51100000000E-03 0. -1.
        -11    1    3    3    0    0  0.29753130043E+01 -0.12746517332E+02  0.30181840292E+02  0.32897867336E+02  0.51100000000E-03 0.  1.
        -12    1    3    3    0    0 -0.27869370481E+01 -0.57278652562E+01  0.50693005469E+01  0.81408394246E+01  0.00000000000E+00 0.  1.
</event>
<event>
 7    1  0.5972636E-013  0.5052876E+02  0.7816164E-02  0.1300439E+00
        -11   -1    0    0    0    0  0.00000000000E+00  0.00000000000E+00  0.45593999997E+02  0.45594000000E+02  0.51100000000E-03 0.  1.
         11   -1    0    0    0    0 -0.00000000000E+00 -0.00000000000E+00 -0.45593999997E+02  0.45594000000E+02  0.51100000000E-03 0. -1.
    9900012    2    1    2    0    0  0.34284185886E+02  0.60020767648E+01  0.21017692799E+02  0.50528760731E+02  0.29999698715E+02 0.  0.
         12    1    1    2    0    0 -0.34284185886E+02 -0.60020767648E+01 -0.21017692799E+02  0.40659239269E+02  0.00000000000E+00 0. -1.
         11    1    3    3    0    0 -0.11011622873E+01 -0.23589616146E+01 -0.14772342659E+01  0.29932389847E+01  0.51100000000E-03 0. -1.
        -11    1    3    3    0    0  0.33743485404E+02  0.96233162730E+00  0.15218048093E+02  0.37028878965E+02  0.51100000000E-03 0.  1.
        -12    1    3    3    0    0  0.16418627696E+01  0.73987067521E+01  0.72768789715E+01  0.10506642781E+02  0.00000000000E+00 0.  1.
</event>
<event>
 7    1  0.5972636E-013  0.5052886E+02  0.7816164E-02  0.1300439E+00
        -11   -1    0    0    0    0  0.00000000000E+00  0.00000000000E+00  0.45593999997E+02  0.45594000000E+02  0.51100000000E-03 0. -1.
         11   -1    0    0    0    0 -0.00000000000E+00 -0.00000000000E+00 -0.45593999997E+02  0.45594000000E+02  0.51100000000E-03 0.  1.
    9900012    2    1    2    0    0 -0.25940201076E+02 -0.67949690498E+01 -0.30563051993E+02  0.50528858551E+02  0.29999996052E+02 0.  0.
         12    1    1    2    0    0  0.25940201076E+02  0.67949690498E+01  0.30563051993E+02  0.40659141449E+02  0.00000000000E+00 0. -1.
         11    1    3    3    0    0  0.18318471492E+01  0.45413993382E+00  0.21186837999E+01  0.28373805460E+01  0.51100000000E-03 0. -1.
        -11    1    3    3    0    0 -0.29509096938E+02 -0.10018219342E+02 -0.31216733648E+02  0.44109363868E+02  0.51100000000E-03 0.  1.
        -12    1    3    3    0    0  0.17370487126E+01  0.27691103587E+01 -0.14650021444E+01  0.35821141372E+01  0.00000000000E+00 0.  1.
</event>
<event>
 7    1  0.5972636E-013  0.5052886E+02  0.7816164E-02  0.1300439E+00
        -11   -1    0    0    0    0  0.00000000000E+00  0.00000000000E+00  0.45593999997E+02  0.45594000000E+02  0.51100000000E-03 0.  1.
         11   -1    0    0    0    0 -0.00000000000E+00 -0.00000000000E+00 -0.45593999997E+02  0.45594000000E+02  0.51100000000E-03 0. -1.
    9900012    2    1    2    0    0 -0.27068915942E+00  0.17370907536E+02  0.36760630005E+02  0.50528860565E+02  0.30000002173E+02 0.  0.
         12    1    1    2    0    0  0.27068915942E+00 -0.17370907536E+02 -0.36760630005E+02  0.40659139435E+02  0.00000000000E+00 0. -1.
         11    1    3    3    0    0  0.55660617874E+01  0.16259318371E+01  0.15665699556E+02  0.16704455723E+02  0.51100000000E-03 0. -1.
        -11    1    3    3    0    0  0.15072063505E+01  0.17874423967E+02  0.10587875061E+02  0.20829541563E+02  0.51100000000E-03 0.  1.
        -12    1    3    3    0    0 -0.73439572974E+01 -0.21294482689E+01  0.10507055388E+02  0.12994863279E+02  0.00000000000E+00 0.  1.
</event>
<event>
 7    1  0.5972636E-013  0.5052886E+02  0.7816164E-02  0.1300439E+00
        -11   -1    0    0    0    0  0.00000000000E+00  0.00000000000E+00  0.45593999997E+02  0.45594000000E+02  0.51100000000E-03 0.  1.
         11   -1    0    0    0    0 -0.00000000000E+00 -0.00000000000E+00 -0.45593999997E+02  0.45594000000E+02  0.51100000000E-03 0. -1.
    9900012    2    1    2    0    0  0.82778533661E+01  0.15961708568E+01  0.39775556770E+02  0.50528861616E+02  0.30000005369E+02 0.  0.
         12    1    1    2    0    0 -0.82778533661E+01 -0.15961708568E+01 -0.39775556770E+02  0.40659138384E+02  0.00000000000E+00 0. -1.
         11    1    3    3    0    0  0.10871731052E+01 -0.64630773536E+01  0.13081718868E+01  0.66831600449E+01  0.51100000000E-03 0. -1.
        -11    1    3    3    0    0  0.13020791059E+02  0.33215224061E+01  0.26574857907E+02  0.29779130006E+02  0.51100000000E-03 0.  1.
         12    1    3    3    0    0 -0.58301107980E+01  0.47377258043E+01  0.11892526976E+02  0.14066571565E+02  0.00000000000E+00 0. -1.
</event>
<event>
 7    1  0.5972636E-013  0.5052886E+02  0.7816164E-02  0.1300439E+00
        -11   -1    0    0    0    0  0.00000000000E+00  0.00000000000E+00  0.45593999997E+02  0.45594000000E+02  0.51100000000E-03 0.  1.
         11   -1    0    0    0    0 -0.00000000000E+00 -0.00000000000E+00 -0.45593999997E+02  0.45594000000E+02  0.51100000000E-03 0. -1.
    9900012    2    1    2    0    0 -0.29585370385E+01 -0.38747931780E+02  0.11958695904E+02  0.50528861220E+02  0.30000004164E+02 0.  0.
         12    1    1    2    0    0  0.29585370385E+01  0.38747931780E+02 -0.11958695904E+02  0.40659138780E+02  0.00000000000E+00 0. -1.
         11    1    3    3    0    0 -0.14530451850E+02 -0.21275276439E+02  0.64478268613E+01  0.26558348782E+02  0.51100000000E-03 0. -1.
        -11    1    3    3    0    0  0.50931925877E+01 -0.15382931243E+02  0.20483732280E+01  0.16333126385E+02  0.51100000000E-03 0.  1.
         12    1    3    3    0    0  0.64787222238E+01 -0.20897240980E+01  0.34624958147E+01  0.76373860532E+01  0.00000000000E+00 0. -1.
</event>
<event>
 7    1  0.5972636E-013  0.5052880E+02  0.7816164E-02  0.1300439E+00
        -11   -1    0    0    0    0  0.00000000000E+00  0.00000000000E+00  0.45593999997E+02  0.45594000000E+02  0.51100000000E-03 0.  1.
         11   -1    0    0    0    0 -0.00000000000E+00 -0.00000000000E+00 -0.45593999997E+02  0.45594000000E+02  0.51100000000E-03 0. -1.
    9900012    2    1    2    0    0 -0.33682665872E+02 -0.32857624416E+01  0.22535578421E+02  0.50528800428E+02  0.29999819379E+02 0.  0.
         12    1    1    2    0    0  0.33682665872E+02  0.32857624416E+01 -0.22535578421E+02  0.40659199572E+02  0.00000000000E+00 0. -1.
         11    1    3    3    0    0 -0.24769802103E+01 -0.43959427369E+01 -0.20554199909E+01  0.54483479247E+01  0.51100000000E-03 0. -1.
        -11    1    3    3    0    0 -0.95143812894E+01  0.44989796495E+01  0.20074827289E+02  0.22666339805E+02  0.51100000000E-03 0.  1.
         12    1    3    3    0    0 -0.21691304373E+02 -0.33887993542E+01  0.45161711235E+01  0.22414112699E+02  0.00000000000E+00 0. -1.
</event>
<event>
 7    1  0.5972636E-013  0.5052886E+02  0.7816164E-02  0.1300439E+00
        -11   -1    0    0    0    0  0.00000000000E+00  0.00000000000E+00  0.45593999997E+02  0.45594000000E+02  0.51100000000E-03 0.  1.
         11   -1    0    0    0    0 -0.00000000000E+00 -0.00000000000E+00 -0.45593999997E+02  0.45594000000E+02  0.51100000000E-03 0. -1.
    9900012    2    1    2    0    0  0.18569205963E+02 -0.30224026772E+02 -0.19871045790E+02  0.50528860004E+02  0.30000000467E+02 0.  0.
         12    1    1    2    0    0 -0.18569205963E+02  0.30224026772E+02  0.19871045790E+02  0.40659139996E+02  0.00000000000E+00 0. -1.
         11    1    3    3    0    0 -0.90097342475E+00 -0.37420444666E-01 -0.15617674778E+01  0.18034054778E+01  0.51100000000E-03 0. -1.
        -11    1    3    3    0    0  0.71204063759E+01 -0.24723174366E+02 -0.22919062005E+02  0.34456043608E+02  0.51100000000E-03 0.  1.
        -12    1    3    3    0    0  0.12349773012E+02 -0.54634319616E+01  0.46097836920E+01  0.14269410918E+02  0.00000000000E+00 0.  1.
</event>
<event>
 7    1  0.5972636E-013  0.5052886E+02  0.7816164E-02  0.1300439E+00
        -11   -1    0    0    0    0  0.00000000000E+00  0.00000000000E+00  0.45593999997E+02  0.45594000000E+02  0.51100000000E-03 0.  1.
         11   -1    0    0    0    0 -0.00000000000E+00 -0.00000000000E+00 -0.45593999997E+02  0.45594000000E+02  0.51100000000E-03 0. -1.
    9900012    2    1    2    0    0  0.62194683870E+01  0.30349231780E+02  0.26332640968E+02  0.50528860351E+02  0.30000001522E+02 0.  0.
         12    1    1    2    0    0 -0.62194683870E+01 -0.30349231780E+02 -0.26332640968E+02  0.40659139649E+02  0.00000000000E+00 0. -1.
         11    1    3    3    0    0  0.11654961889E+02  0.51714473922E+01  0.71447848466E+01  0.14616085507E+02  0.51100000000E-03 0. -1.
        -11    1    3    3    0    0 -0.10470374089E+02  0.12024730900E+02  0.12806890097E+02  0.20450900249E+02  0.51100000000E-03 0.  1.
        -12    1    3    3    0    0  0.50348805865E+01  0.13153053488E+02  0.63809660242E+01  0.15461874595E+02  0.00000000000E+00 0.  1.
</event>
<event>
 7    1  0.5972636E-013  0.5052886E+02  0.7816164E-02  0.1300439E+00
        -11   -1    0    0    0    0  0.00000000000E+00  0.00000000000E+00  0.45593999997E+02  0.45594000000E+02  0.51100000000E-03 0.  1.
         11   -1    0    0    0    0 -0.00000000000E+00 -0.00000000000E+00 -0.45593999997E+02  0.45594000000E+02  0.51100000000E-03 0. -1.
    9900012    2    1    2    0    0  0.37014738119E+02  0.16491457556E+02  0.33326277001E+01  0.50528863047E+02  0.30000009719E+02 0.  0.
         12    1    1    2    0    0 -0.37014738119E+02 -0.16491457556E+02 -0.33326277001E+01  0.40659136953E+02  0.00000000000E+00 0. -1.
         11    1    3    3    0    0  0.89443521941E+01  0.13277676273E+02 -0.57655405043E+01  0.17015862627E+02  0.51100000000E-03 0. -1.
        -11    1    3    3    0    0  0.24987155005E+02 -0.30271301577E+01  0.58980286852E+01  0.25851657101E+02  0.51100000000E-03 0.  1.
         12    1    3    3    0    0  0.30832309203E+01  0.62409114400E+01  0.32001395192E+01  0.76613433190E+01  0.00000000000E+00 0. -1.
</event>
<event>
 7    1  0.5972636E-013  0.5052891E+02  0.7816164E-02  0.1300439E+00
        -11   -1    0    0    0    0  0.00000000000E+00  0.00000000000E+00  0.45593999997E+02  0.45594000000E+02  0.51100000000E-03 0.  1.
         11   -1    0    0    0    0 -0.00000000000E+00 -0.00000000000E+00 -0.45593999997E+02  0.45594000000E+02  0.51100000000E-03 0. -1.
    9900012    2    1    2    0    0  0.25540522069E+01  0.14057508297E+02  0.38066055889E+02  0.50528913277E+02  0.30000162397E+02 0.  0.
         12    1    1    2    0    0 -0.25540522069E+01 -0.14057508297E+02 -0.38066055889E+02  0.40659086723E+02  0.00000000000E+00 0. -1.
         11    1    3    3    0    0  0.12491029636E+02 -0.17595710038E+00  0.18974090795E+02  0.22717238037E+02  0.51100000000E-03 0. -1.
        -11    1    3    3    0    0 -0.65363757744E+01  0.10085652708E+02  0.18957718198E+02  0.22446373390E+02  0.51100000000E-03 0.  1.
         12    1    3    3    0    0 -0.34006016550E+01  0.41478126889E+01  0.13424689604E+00  0.53653018506E+01  0.00000000000E+00 0. -1.
</event>
<event>
 7    1  0.5972636E-013  0.5052886E+02  0.7816164E-02  0.1300439E+00
        -11   -1    0    0    0    0  0.00000000000E+00  0.00000000000E+00  0.45593999997E+02  0.45594000000E+02  0.51100000000E-03 0.  1.
         11   -1    0    0    0    0 -0.00000000000E+00 -0.00000000000E+00 -0.45593999997E+02  0.45594000000E+02  0.51100000000E-03 0. -1.
    9900012    2    1    2    0    0 -0.27141683149E+02 -0.30184951635E+02  0.23158639590E+01  0.50528862094E+02  0.30000006821E+02 0.  0.
         12    1    1    2    0    0  0.27141683149E+02  0.30184951635E+02 -0.23158639590E+01  0.40659137906E+02  0.00000000000E+00 0. -1.
         11    1    3    3    0    0  0.31057271900E+00 -0.12511878285E+02  0.68153613018E+01  0.14251059735E+02  0.51100000000E-03 0. -1.
        -11    1    3    3    0    0 -0.19752538197E+02 -0.41359020617E+01 -0.46228220690E+01  0.20703597156E+02  0.51100000000E-03 0.  1.
         12    1    3    3    0    0 -0.76997176719E+01 -0.13537171288E+02  0.12332472618E+00  0.15574205203E+02  0.00000000000E+00 0. -1.
</event>
<event>
 7    1  0.5972636E-013  0.5052888E+02  0.7816164E-02  0.1300439E+00
        -11   -1    0    0    0    0  0.00000000000E+00  0.00000000000E+00  0.45593999997E+02  0.45594000000E+02  0.51100000000E-03 0.  1.
         11   -1    0    0    0    0 -0.00000000000E+00 -0.00000000000E+00 -0.45593999997E+02  0.45594000000E+02  0.51100000000E-03 0. -1.
    9900012    2    1    2    0    0 -0.39326514339E+02  0.34042804939E+01  0.97468227325E+01  0.50528875451E+02  0.30000047420E+02 0.  0.
         12    1    1    2    0    0  0.39326514339E+02 -0.34042804939E+01 -0.97468227325E+01  0.40659124549E+02  0.00000000000E+00 0. -1.
         11    1    3    3    0    0 -0.18875021282E+02 -0.45422200787E+01  0.16105177093E+02  0.25224490502E+02  0.51100000000E-03 0. -1.
        -11    1    3    3    0    0 -0.49454356015E+01  0.74086269312E+01 -0.14064700355E+01  0.90179401481E+01  0.51100000000E-03 0.  1.
         12    1    3    3    0    0 -0.15506057456E+02  0.53787364153E+00 -0.49518843248E+01  0.16286444801E+02  0.00000000000E+00 0. -1.
</event>
<event>
 7    1  0.5972636E-013  0.5052886E+02  0.7816164E-02  0.1300439E+00
        -11   -1    0    0    0    0  0.00000000000E+00  0.00000000000E+00  0.45593999997E+02  0.45594000000E+02  0.51100000000E-03 0.  1.
         11   -1    0    0    0    0 -0.00000000000E+00 -0.00000000000E+00 -0.45593999997E+02  0.45594000000E+02  0.51100000000E-03 0. -1.
    9900012    2    1    2    0    0  0.10600868472E+02  0.38571222590E+02 -0.72834266876E+01  0.50528856763E+02  0.29999990616E+02 0.  0.
         12    1    1    2    0    0 -0.10600868472E+02 -0.38571222590E+02  0.72834266876E+01  0.40659143237E+02  0.00000000000E+00 0. -1.
         11    1    3    3    0    0 -0.16188211564E+01  0.30134956682E+01  0.51696552237E+01  0.61989574504E+01  0.51100000000E-03 0. -1.
        -11    1    3    3    0    0  0.55941108243E+01  0.28737661403E+02 -0.79765799642E+00  0.29287941501E+02  0.51100000000E-03 0.  1.
        -12    1    3    3    0    0  0.66255788037E+01  0.68200655197E+01 -0.11655423915E+02  0.15041957812E+02  0.00000000000E+00 0.  1.
</event>
<event>
 7    1  0.5972636E-013  0.5052891E+02  0.7816164E-02  0.1300439E+00
        -11   -1    0    0    0    0  0.00000000000E+00  0.00000000000E+00  0.45593999997E+02  0.45594000000E+02  0.51100000000E-03 0.  1.
         11   -1    0    0    0    0 -0.00000000000E+00 -0.00000000000E+00 -0.45593999997E+02  0.45594000000E+02  0.51100000000E-03 0. -1.
    9900012    2    1    2    0    0  0.30824903660E+02 -0.45850250956E+01  0.26114454711E+02  0.50528906482E+02  0.30000141744E+02 0.  0.
         12    1    1    2    0    0 -0.30824903660E+02  0.45850250956E+01 -0.26114454711E+02  0.40659093518E+02  0.00000000000E+00 0. -1.
         11    1    3    3    0    0  0.99464477703E+01  0.67038208910E+01  0.34614636029E+01  0.12484180723E+02  0.51100000000E-03 0. -1.
        -11    1    3    3    0    0  0.36681254248E+01 -0.12267016499E+02  0.13180127232E+02  0.18375271210E+02  0.51100000000E-03 0.  1.
        -12    1    3    3    0    0  0.17210330465E+02  0.97817051203E+00  0.94728638759E+01  0.19669454550E+02  0.00000000000E+00 0.  1.
</event>
<event>
 7    1  0.5972636E-013  0.5052886E+02  0.7816164E-02  0.1300439E+00
        -11   -1    0    0    0    0  0.00000000000E+00  0.00000000000E+00  0.45593999997E+02  0.45594000000E+02  0.51100000000E-03 0.  1.
         11   -1    0    0    0    0 -0.00000000000E+00 -0.00000000000E+00 -0.45593999997E+02  0.45594000000E+02  0.51100000000E-03 0. -1.
    9900012    2    1    2    0    0  0.16143397638E+02 -0.33181594836E+02  0.17074479424E+02  0.50528863625E+02  0.30000011474E+02 0.  0.
         12    1    1    2    0    0 -0.16143397638E+02  0.33181594836E+02 -0.17074479424E+02  0.40659136375E+02  0.00000000000E+00 0. -1.
         11    1    3    3    0    0 -0.46395243208E+01 -0.26910679672E+01  0.36655666870E+01  0.64964153289E+01  0.51100000000E-03 0. -1.
        -11    1    3    3    0    0  0.19135407088E+02 -0.22024334073E+02  0.17979809387E+02  0.34271105054E+02  0.51100000000E-03 0.  1.
        -12    1    3    3    0    0  0.16475148708E+01 -0.84661927961E+01 -0.45708966494E+01  0.97613432421E+01  0.00000000000E+00 0.  1.
</event>
<event>
 7    1  0.5972636E-013  0.5052885E+02  0.7816164E-02  0.1300439E+00
        -11   -1    0    0    0    0  0.00000000000E+00  0.00000000000E+00  0.45593999997E+02  0.45594000000E+02  0.51100000000E-03 0.  1.
         11   -1    0    0    0    0 -0.00000000000E+00 -0.00000000000E+00 -0.45593999997E+02  0.45594000000E+02  0.51100000000E-03 0. -1.
    9900012    2    1    2    0    0 -0.14273275753E+02 -0.23018744274E+02  0.30324537377E+02  0.50528849052E+02  0.29999967180E+02 0.  0.
         12    1    1    2    0    0  0.14273275753E+02  0.23018744274E+02 -0.30324537377E+02  0.40659150948E+02  0.00000000000E+00 0. -1.
         11    1    3    3    0    0 -0.10759474163E+02  0.75558345980E+00  0.16486541948E+02  0.19701351636E+02  0.51100000000E-03 0. -1.
        -11    1    3    3    0    0 -0.30429865061E+01 -0.17554473317E+02  0.26419110502E+01  0.18011079773E+02  0.51100000000E-03 0.  1.
        -12    1    3    3    0    0 -0.47081508417E+00 -0.62198544160E+01  0.11196084378E+02  0.12816417643E+02  0.00000000000E+00 0.  1.
</event>
<event>
 7    1  0.5972636E-013  0.5052886E+02  0.7816164E-02  0.1300439E+00
        -11   -1    0    0    0    0  0.00000000000E+00  0.00000000000E+00  0.45593999997E+02  0.45594000000E+02  0.51100000000E-03 0. -1.
         11   -1    0    0    0    0 -0.00000000000E+00 -0.00000000000E+00 -0.45593999997E+02  0.45594000000E+02  0.51100000000E-03 0.  1.
    9900012    2    1    2    0    0  0.12813979368E+02  0.20092330514E+02 -0.32943376960E+02  0.50528857138E+02  0.29999991756E+02 0.  0.
         12    1    1    2    0    0 -0.12813979368E+02 -0.20092330514E+02  0.32943376960E+02  0.40659142862E+02  0.00000000000E+00 0. -1.
         11    1    3    3    0    0  0.10406076041E+01  0.58812333358E+00  0.12433502467E+01  0.17247241340E+01  0.51100000000E-03 0. -1.
        -11    1    3    3    0    0  0.42831854176E+01 -0.33862156949E+01 -0.20259847359E+02  0.20982696426E+02  0.51100000000E-03 0.  1.
        -12    1    3    3    0    0  0.74901863466E+01  0.22890422875E+02 -0.13926879848E+02  0.27821436577E+02  0.00000000000E+00 0.  1.
</event>
<event>
 7    1  0.5972636E-013  0.5052885E+02  0.7816164E-02  0.1300439E+00
        -11   -1    0    0    0    0  0.00000000000E+00  0.00000000000E+00  0.45593999997E+02  0.45594000000E+02  0.51100000000E-03 0.  1.
         11   -1    0    0    0    0 -0.00000000000E+00 -0.00000000000E+00 -0.45593999997E+02  0.45594000000E+02  0.51100000000E-03 0. -1.
    9900012    2    1    2    0    0  0.46048640768E+01 -0.40056577281E+02  0.52375519175E+01  0.50528854575E+02  0.29999983966E+02 0.  0.
         12    1    1    2    0    0 -0.46048640768E+01  0.40056577281E+02 -0.52375519175E+01  0.40659145425E+02  0.00000000000E+00 0. -1.
         11    1    3    3    0    0  0.50363878679E+01  0.32082311279E+00 -0.93842493031E+00  0.51331054768E+01  0.51100000000E-03 0. -1.
        -11    1    3    3    0    0 -0.84443956808E+01 -0.28985342685E+02  0.75496886048E-01  0.30190455595E+02  0.51100000000E-03 0.  1.
        -12    1    3    3    0    0  0.80128718898E+01 -0.11392057709E+02  0.61004799618E+01  0.15205293503E+02  0.00000000000E+00 0.  1.
</event>
<event>
 7    1  0.5972636E-013  0.5052887E+02  0.7816164E-02  0.1300439E+00
        -11   -1    0    0    0    0  0.00000000000E+00  0.00000000000E+00  0.45593999997E+02  0.45594000000E+02  0.51100000000E-03 0.  1.
         11   -1    0    0    0    0 -0.00000000000E+00 -0.00000000000E+00 -0.45593999997E+02  0.45594000000E+02  0.51100000000E-03 0. -1.
    9900012    2    1    2    0    0  0.12595682151E+02  0.15279490009E+02  0.35511278025E+02  0.50528869527E+02  0.30000029416E+02 0.  0.
         12    1    1    2    0    0 -0.12595682151E+02 -0.15279490009E+02 -0.35511278025E+02  0.40659130473E+02  0.00000000000E+00 0. -1.
         11    1    3    3    0    0  0.90469061290E+01  0.11413883931E+01  0.10247945425E+01  0.91760275766E+01  0.51100000000E-03 0. -1.
        -11    1    3    3    0    0  0.48015456973E+01  0.15253830570E+02  0.15427946388E+02  0.22220614711E+02  0.51100000000E-03 0.  1.
        -12    1    3    3    0    0 -0.12527696751E+01 -0.11157289535E+01  0.19058537095E+02  0.19132227240E+02  0.00000000000E+00 0.  1.
</event>
<event>
 7    1  0.5972636E-013  0.5052886E+02  0.7816164E-02  0.1300439E+00
        -11   -1    0    0    0    0  0.00000000000E+00  0.00000000000E+00  0.45593999997E+02  0.45594000000E+02  0.51100000000E-03 0. -1.
         11   -1    0    0    0    0 -0.00000000000E+00 -0.00000000000E+00 -0.45593999997E+02  0.45594000000E+02  0.51100000000E-03 0.  1.
    9900012    2    1    2    0    0 -0.29094524722E+02  0.17422124458E+02  0.22430868134E+02  0.50528860380E+02  0.30000001611E+02 0.  0.
         12    1    1    2    0    0  0.29094524722E+02 -0.17422124458E+02 -0.22430868134E+02  0.40659139620E+02  0.00000000000E+00 0. -1.
         11    1    3    3    0    0 -0.25876442926E+02  0.16651791371E+02  0.86445783812E+01  0.31962496617E+02  0.51100000000E-03 0. -1.
        -11    1    3    3    0    0  0.15755734899E+01  0.69736069976E-01 -0.17124898643E+01  0.23280714632E+01  0.51100000000E-03 0.  1.
         12    1    3    3    0    0 -0.47936552856E+01  0.70059701654E+00  0.15498779617E+02  0.16238292299E+02  0.00000000000E+00 0. -1.
</event>
<event>
 7    1  0.5972636E-013  0.5052884E+02  0.7816164E-02  0.1300439E+00
        -11   -1    0    0    0    0  0.00000000000E+00  0.00000000000E+00  0.45593999997E+02  0.45594000000E+02  0.51100000000E-03 0.  1.
         11   -1    0    0    0    0 -0.00000000000E+00 -0.00000000000E+00 -0.45593999997E+02  0.45594000000E+02  0.51100000000E-03 0. -1.
    9900012    2    1    2    0    0  0.26008229946E+02 -0.24414331650E+02  0.19511010749E+02  0.50528841680E+02  0.29999944771E+02 0.  0.
         12    1    1    2    0    0 -0.26008229946E+02  0.24414331650E+02 -0.19511010749E+02  0.40659158320E+02  0.00000000000E+00 0. -1.
         11    1    3    3    0    0  0.56506467097E+01 -0.36562423531E+01 -0.76636869970E+01  0.10199510529E+02  0.51100000000E-03 0. -1.
        -11    1    3    3    0    0  0.11764772908E+02 -0.16226257711E+02  0.19294486763E+02  0.27820469812E+02  0.51100000000E-03 0.  1.
         12    1    3    3    0    0  0.85928103279E+01 -0.45318315863E+01  0.78802109829E+01  0.12508861339E+02  0.00000000000E+00 0. -1.
</event>
<event>
 7    1  0.5972636E-013  0.5052886E+02  0.7816164E-02  0.1300439E+00
        -11   -1    0    0    0    0  0.00000000000E+00  0.00000000000E+00  0.45593999997E+02  0.45594000000E+02  0.51100000000E-03 0. -1.
         11   -1    0    0    0    0 -0.00000000000E+00 -0.00000000000E+00 -0.45593999997E+02  0.45594000000E+02  0.51100000000E-03 0.  1.
    9900012    2    1    2    0    0 -0.24874449626E+02  0.20420112020E+02 -0.24848462186E+02  0.50528864592E+02  0.30000014414E+02 0.  0.
         12    1    1    2    0    0  0.24874449626E+02 -0.20420112020E+02  0.24848462186E+02  0.40659135408E+02  0.00000000000E+00 0. -1.
         11    1    3    3    0    0 -0.15433644340E+01  0.75529268702E+00 -0.15124179475E+02  0.15221473183E+02  0.51100000000E-03 0. -1.
        -11    1    3    3    0    0 -0.22910351976E+02  0.17592055471E+02 -0.39453365290E+01  0.29153564515E+02  0.51100000000E-03 0.  1.
        -12    1    3    3    0    0 -0.42073321659E+00  0.20727638626E+01 -0.57789461819E+01  0.61538268941E+01  0.00000000000E+00 0.  1.
</event>
<event>
 7    1  0.5972636E-013  0.5052886E+02  0.7816164E-02  0.1300439E+00
        -11   -1    0    0    0    0  0.00000000000E+00  0.00000000000E+00  0.45593999997E+02  0.45594000000E+02  0.51100000000E-03 0. -1.
         11   -1    0    0    0    0 -0.00000000000E+00 -0.00000000000E+00 -0.45593999997E+02  0.45594000000E+02  0.51100000000E-03 0.  1.
    9900012    2    1    2    0    0 -0.31467897976E+02  0.25158780136E+02  0.54747363575E+01  0.50528861308E+02  0.30000004433E+02 0.  0.
         12    1    1    2    0    0  0.31467897976E+02 -0.25158780136E+02 -0.54747363575E+01  0.40659138692E+02  0.00000000000E+00 0. -1.
         11    1    3    3    0    0 -0.13236136705E+02  0.16142968854E+00  0.80061794493E+01  0.15469980092E+02  0.51100000000E-03 0. -1.
        -11    1    3    3    0    0 -0.13692983236E+02  0.25570159629E+02  0.13820037599E+01  0.29038608575E+02  0.51100000000E-03 0.  1.
        -12    1    3    3    0    0 -0.45387780346E+01 -0.57280918117E+00 -0.39134468518E+01  0.60202726406E+01  0.00000000000E+00 0.  1.
</event>
<event>
 7    1  0.5972636E-013  0.5052886E+02  0.7816164E-02  0.1300439E+00
        -11   -1    0    0    0    0  0.00000000000E+00  0.00000000000E+00  0.45593999997E+02  0.45594000000E+02  0.51100000000E-03 0. -1.
         11   -1    0    0    0    0 -0.00000000000E+00 -0.00000000000E+00 -0.45593999997E+02  0.45594000000E+02  0.51100000000E-03 0.  1.
    9900012    2    1    2    0    0 -0.18446478037E+02 -0.16680633974E+02  0.32165972714E+02  0.50528857088E+02  0.29999991605E+02 0.  0.
         12    1    1    2    0    0  0.18446478037E+02  0.16680633974E+02 -0.32165972714E+02  0.40659142912E+02  0.00000000000E+00 0. -1.
         11    1    3    3    0    0 -0.62903129212E+01 -0.11414331521E+02  0.18436348859E+02  0.22577731512E+02  0.51100000000E-03 0. -1.
        -11    1    3    3    0    0 -0.27116720852E+00 -0.57079631303E+01 -0.37311686719E+01  0.68246607734E+01  0.51100000000E-03 0.  1.
        -12    1    3    3    0    0 -0.11884997907E+02  0.44166067717E+00  0.17460792526E+02  0.21126464802E+02  0.00000000000E+00 0.  1.
</event>
<event>
 7    1  0.5972636E-013  0.5052884E+02  0.7816164E-02  0.1300439E+00
        -11   -1    0    0    0    0  0.00000000000E+00  0.00000000000E+00  0.45593999997E+02  0.45594000000E+02  0.51100000000E-03 0.  1.
         11   -1    0    0    0    0 -0.00000000000E+00 -0.00000000000E+00 -0.45593999997E+02  0.45594000000E+02  0.51100000000E-03 0. -1.
    9900012    2    1    2    0    0 -0.13128496707E+02  0.28135777137E+02  0.26252394804E+02  0.50528836041E+02  0.29999927631E+02 0.  0.
         12    1    1    2    0    0  0.13128496707E+02 -0.28135777137E+02 -0.26252394804E+02  0.40659163959E+02  0.00000000000E+00 0. -1.
         11    1    3    3    0    0 -0.63263778004E+01  0.10128901892E+02  0.56714332691E+00  0.11955725048E+02  0.51100000000E-03 0. -1.
        -11    1    3    3    0    0 -0.38413595434E+01  0.29056927359E+01  0.22302936764E+02  0.22817100648E+02  0.51100000000E-03 0.  1.
        -12    1    3    3    0    0 -0.29607593631E+01  0.15101182509E+02  0.33823147124E+01  0.15756010345E+02  0.00000000000E+00 0.  1.
</event>
<event>
 7    1  0.5972636E-013  0.5052887E+02  0.7816164E-02  0.1300439E+00
        -11   -1    0    0    0    0  0.00000000000E+00  0.00000000000E+00  0.45593999997E+02  0.45594000000E+02  0.51100000000E-03 0.  1.
         11   -1    0    0    0    0 -0.00000000000E+00 -0.00000000000E+00 -0.45593999997E+02  0.45594000000E+02  0.51100000000E-03 0. -1.
    9900012    2    1    2    0    0  0.18752558382E+02 -0.12087635730E+02  0.33991107456E+02  0.50528871019E+02  0.30000033950E+02 0.  0.
         12    1    1    2    0    0 -0.18752558382E+02  0.12087635730E+02 -0.33991107456E+02  0.40659128981E+02  0.00000000000E+00 0. -1.
         11    1    3    3    0    0  0.53193518863E+00 -0.46517801438E-01  0.11275720845E+02  0.11288356824E+02  0.51100000000E-03 0. -1.
        -11    1    3    3    0    0  0.22864795292E+02 -0.14046548118E+02  0.17904601319E+02  0.32259558684E+02  0.51100000000E-03 0.  1.
        -12    1    3    3    0    0 -0.46441720992E+01  0.20054301894E+01  0.48107852917E+01  0.69809555115E+01  0.00000000000E+00 0.  1.
</event>
<event>
 7    1  0.5972636E-013  0.5052887E+02  0.7816164E-02  0.1300439E+00
        -11   -1    0    0    0    0  0.00000000000E+00  0.00000000000E+00  0.45593999997E+02  0.45594000000E+02  0.51100000000E-03 0.  1.
         11   -1    0    0    0    0 -0.00000000000E+00 -0.00000000000E+00 -0.45593999997E+02  0.45594000000E+02  0.51100000000E-03 0. -1.
    9900012    2    1    2    0    0 -0.19893954148E+02 -0.23724343552E+02  0.26354329446E+02  0.50528873482E+02  0.30000041436E+02 0.  0.
         12    1    1    2    0    0  0.19893954148E+02  0.23724343552E+02 -0.26354329446E+02  0.40659126518E+02  0.00000000000E+00 0. -1.
         11    1    3    3    0    0 -0.20963012544E+02 -0.95875620854E+01  0.19552204133E+02  0.30226775024E+02  0.51100000000E-03 0. -1.
        -11    1    3    3    0    0 -0.60149886356E+00 -0.10404336997E+02  0.10496260800E+02  0.14791332606E+02  0.51100000000E-03 0.  1.
         12    1    3    3    0    0  0.16705572588E+01 -0.37324444702E+01 -0.36941354865E+01  0.55107658516E+01  0.00000000000E+00 0. -1.
</event>
<event>
 7    1  0.5972636E-013  0.5052887E+02  0.7816164E-02  0.1300439E+00
        -11   -1    0    0    0    0  0.00000000000E+00  0.00000000000E+00  0.45593999997E+02  0.45594000000E+02  0.51100000000E-03 0.  1.
         11   -1    0    0    0    0 -0.00000000000E+00 -0.00000000000E+00 -0.45593999997E+02  0.45594000000E+02  0.51100000000E-03 0. -1.
    9900012    2    1    2    0    0  0.39818968344E+02 -0.33326432798E+01  0.75172075235E+01  0.50528866215E+02  0.30000019347E+02 0.  0.
         12    1    1    2    0    0 -0.39818968344E+02  0.33326432798E+01 -0.75172075235E+01  0.40659133785E+02  0.00000000000E+00 0. -1.
         11    1    3    3    0    0  0.86291533962E+00  0.42965071186E+01  0.68230197336E+01  0.81091426705E+01  0.51100000000E-03 0. -1.
        -11    1    3    3    0    0  0.39476596742E+02 -0.92345725207E+01  0.14551049003E+01  0.40568415676E+02  0.51100000000E-03 0.  1.
        -12    1    3    3    0    0 -0.52054373748E+00  0.16054221224E+01 -0.76091711036E+00  0.18513078681E+01  0.00000000000E+00 0.  1.
</event>
<event>
 7    1  0.5972636E-013  0.5052886E+02  0.7816164E-02  0.1300439E+00
        -11   -1    0    0    0    0  0.00000000000E+00  0.00000000000E+00  0.45593999997E+02  0.45594000000E+02  0.51100000000E-03 0. -1.
         11   -1    0    0    0    0 -0.00000000000E+00 -0.00000000000E+00 -0.45593999997E+02  0.45594000000E+02  0.51100000000E-03 0.  1.
    9900012    2    1    2    0    0 -0.54689590400E+01 -0.97677254992E+01 -0.39087691410E+02  0.50528860877E+02  0.30000003123E+02 0.  0.
         12    1    1    2    0    0  0.54689590400E+01  0.97677254992E+01  0.39087691410E+02  0.40659139123E+02  0.00000000000E+00 0. -1.
         11    1    3    3    0    0  0.53656135636E+01 -0.10130900966E+01 -0.10000552614E+01  0.55512405141E+01  0.51100000000E-03 0. -1.
        -11    1    3    3    0    0 -0.88756627359E+01  0.11899153499E+01 -0.31830366372E+02  0.33066077953E+02  0.51100000000E-03 0.  1.
        -12    1    3    3    0    0 -0.19589098677E+01 -0.99445507525E+01 -0.62572697771E+01  0.11911542411E+02  0.00000000000E+00 0.  1.
</event>
<event>
 7    1  0.5972636E-013  0.5052886E+02  0.7816164E-02  0.1300439E+00
        -11   -1    0    0    0    0  0.00000000000E+00  0.00000000000E+00  0.45593999997E+02  0.45594000000E+02  0.51100000000E-03 0.  1.
         11   -1    0    0    0    0 -0.00000000000E+00 -0.00000000000E+00 -0.45593999997E+02  0.45594000000E+02  0.51100000000E-03 0. -1.
    9900012    2    1    2    0    0 -0.15702373433E+02 -0.19829262772E+02  0.31833964911E+02  0.50528861846E+02  0.30000006066E+02 0.  0.
         12    1    1    2    0    0  0.15702373433E+02  0.19829262772E+02 -0.31833964911E+02  0.40659138154E+02  0.00000000000E+00 0. -1.
         11    1    3    3    0    0 -0.61530203229E+01 -0.16748530008E+02  0.74141950539E+01  0.19322091116E+02  0.51100000000E-03 0. -1.
        -11    1    3    3    0    0 -0.68194186295E+01  0.33910860043E+01  0.22358994897E+01  0.79374543477E+01  0.51100000000E-03 0.  1.
         12    1    3    3    0    0 -0.27299344804E+01 -0.64718187679E+01  0.22183870367E+02  0.23269316383E+02  0.00000000000E+00 0. -1.
</event>
<event>
 7    1  0.5972636E-013  0.5052886E+02  0.7816164E-02  0.1300439E+00
        -11   -1    0    0    0    0  0.00000000000E+00  0.00000000000E+00  0.45593999997E+02  0.45594000000E+02  0.51100000000E-03 0.  1.
         11   -1    0    0    0    0 -0.00000000000E+00 -0.00000000000E+00 -0.45593999997E+02  0.45594000000E+02  0.51100000000E-03 0. -1.
    9900012    2    1    2    0    0  0.38210429928E+02  0.11765483143E+02 -0.73961010164E+01  0.50528857620E+02  0.29999993222E+02 0.  0.
         12    1    1    2    0    0 -0.38210429928E+02 -0.11765483143E+02  0.73961010164E+01  0.40659142380E+02  0.00000000000E+00 0. -1.
         11    1    3    3    0    0  0.10248619761E+02  0.13618374033E+02 -0.11617833960E+02  0.20626884993E+02  0.51100000000E-03 0. -1.
        -11    1    3    3    0    0  0.26963915909E+01  0.11596142250E+01  0.33342433589E+01  0.44421179407E+01  0.51100000000E-03 0.  1.
         12    1    3    3    0    0  0.25265418576E+02 -0.30125051158E+01  0.88748958524E+00  0.25459854687E+02  0.00000000000E+00 0. -1.
</event>
<event>
 7    1  0.5972636E-013  0.5052888E+02  0.7816164E-02  0.1300439E+00
        -11   -1    0    0    0    0  0.00000000000E+00  0.00000000000E+00  0.45593999997E+02  0.45594000000E+02  0.51100000000E-03 0.  1.
         11   -1    0    0    0    0 -0.00000000000E+00 -0.00000000000E+00 -0.45593999997E+02  0.45594000000E+02  0.51100000000E-03 0. -1.
    9900012    2    1    2    0    0  0.27803374554E+02 -0.23230577066E+00  0.29666183848E+02  0.50528879662E+02  0.30000060219E+02 0.  0.
         12    1    1    2    0    0 -0.27803374554E+02  0.23230577066E+00 -0.29666183848E+02  0.40659120338E+02  0.00000000000E+00 0. -1.
         11    1    3    3    0    0  0.12209875927E+02 -0.20806262265E+01 -0.69613866227E+00  0.12405429656E+02  0.51100000000E-03 0. -1.
        -11    1    3    3    0    0  0.40599040303E+01  0.19969883221E+01  0.24995116373E+02  0.25401311499E+02  0.51100000000E-03 0.  1.
        -12    1    3    3    0    0  0.11533594597E+02 -0.14866786621E+00  0.53672061370E+01  0.12722138507E+02  0.00000000000E+00 0.  1.
</event>
<event>
 7    1  0.5972636E-013  0.5052886E+02  0.7816164E-02  0.1300439E+00
        -11   -1    0    0    0    0  0.00000000000E+00  0.00000000000E+00  0.45593999997E+02  0.45594000000E+02  0.51100000000E-03 0.  1.
         11   -1    0    0    0    0 -0.00000000000E+00 -0.00000000000E+00 -0.45593999997E+02  0.45594000000E+02  0.51100000000E-03 0. -1.
    9900012    2    1    2    0    0 -0.30903189904E+02 -0.76092912319E+00  0.26411729571E+02  0.50528860581E+02  0.30000002223E+02 0.  0.
         12    1    1    2    0    0  0.30903189904E+02  0.76092912319E+00 -0.26411729571E+02  0.40659139419E+02  0.00000000000E+00 0. -1.
         11    1    3    3    0    0 -0.11952767636E+02 -0.82467271961E+00  0.32260276135E+01  0.12407900454E+02  0.51100000000E-03 0. -1.
        -11    1    3    3    0    0  0.44733542744E+01 -0.33256010914E+01  0.88226449875E+01  0.10435975562E+02  0.51100000000E-03 0.  1.
        -12    1    3    3    0    0 -0.23423776542E+02  0.33893446878E+01  0.14363056969E+02  0.27684984566E+02  0.00000000000E+00 0.  1.
</event>
<event>
 7    1  0.5972636E-013  0.5052886E+02  0.7816164E-02  0.1300439E+00
        -11   -1    0    0    0    0  0.00000000000E+00  0.00000000000E+00  0.45593999997E+02  0.45594000000E+02  0.51100000000E-03 0. -1.
         11   -1    0    0    0    0 -0.00000000000E+00 -0.00000000000E+00 -0.45593999997E+02  0.45594000000E+02  0.51100000000E-03 0.  1.
    9900012    2    1    2    0    0  0.18506463169E+02  0.31810653942E+02  0.17284634041E+02  0.50528862563E+02  0.30000008245E+02 0.  0.
         12    1    1    2    0    0 -0.18506463169E+02 -0.31810653942E+02 -0.17284634041E+02  0.40659137437E+02  0.00000000000E+00 0. -1.
         11    1    3    3    0    0 -0.28854194593E+01  0.42823614667E+01  0.11513918676E+02  0.12618818833E+02  0.51100000000E-03 0. -1.
        -11    1    3    3    0    0  0.21503267495E+02  0.18412692713E+02  0.35851390900E+01  0.28535433911E+02  0.51100000000E-03 0.  1.
        -12    1    3    3    0    0 -0.11138486698E+00  0.91155997623E+01  0.21855762745E+01  0.93746098194E+01  0.00000000000E+00 0.  1.
</event>
<event>
 7    1  0.5972636E-013  0.5052887E+02  0.7816164E-02  0.1300439E+00
        -11   -1    0    0    0    0  0.00000000000E+00  0.00000000000E+00  0.45593999997E+02  0.45594000000E+02  0.51100000000E-03 0. -1.
         11   -1    0    0    0    0 -0.00000000000E+00 -0.00000000000E+00 -0.45593999997E+02  0.45594000000E+02  0.51100000000E-03 0.  1.
    9900012    2    1    2    0    0  0.23071494296E+02  0.15324303173E+01 -0.33444322539E+02  0.50528869392E+02  0.30000029002E+02 0.  0.
         12    1    1    2    0    0 -0.23071494296E+02 -0.15324303173E+01  0.33444322539E+02  0.40659130608E+02  0.00000000000E+00 0. -1.
         11    1    3    3    0    0  0.14499077086E+02 -0.47164326574E+01 -0.13965816459E+02  0.20676363389E+02  0.51100000000E-03 0. -1.
        -11    1    3    3    0    0 -0.23170023820E+01  0.39299213939E+01 -0.18061906761E+02  0.18629150767E+02  0.51100000000E-03 0.  1.
         12    1    3    3    0    0  0.10889419592E+02  0.23189415807E+01 -0.14165993189E+01  0.11223355235E+02  0.00000000000E+00 0. -1.
</event>
<event>
 7    1  0.5972636E-013  0.5052884E+02  0.7816164E-02  0.1300439E+00
        -11   -1    0    0    0    0  0.00000000000E+00  0.00000000000E+00  0.45593999997E+02  0.45594000000E+02  0.51100000000E-03 0.  1.
         11   -1    0    0    0    0 -0.00000000000E+00 -0.00000000000E+00 -0.45593999997E+02  0.45594000000E+02  0.51100000000E-03 0. -1.
    9900012    2    1    2    0    0 -0.26447981644E+02  0.12092055507E+01  0.30857889501E+02  0.50528840447E+02  0.29999941024E+02 0.  0.
         12    1    1    2    0    0  0.26447981644E+02 -0.12092055507E+01 -0.30857889501E+02  0.40659159553E+02  0.00000000000E+00 0. -1.
         11    1    3    3    0    0 -0.23141466736E+02 -0.39869124075E+01  0.12135896463E+02  0.26432989548E+02  0.51100000000E-03 0. -1.
        -11    1    3    3    0    0 -0.78085087839E+01  0.66820648121E+01  0.14321181451E+02  0.17627224342E+02  0.51100000000E-03 0.  1.
         12    1    3    3    0    0  0.45019938762E+01 -0.14859468540E+01  0.44008115861E+01  0.64686265568E+01  0.00000000000E+00 0. -1.
</event>
<event>
 7    1  0.5972636E-013  0.5052886E+02  0.7816164E-02  0.1300439E+00
        -11   -1    0    0    0    0  0.00000000000E+00  0.00000000000E+00  0.45593999997E+02  0.45594000000E+02  0.51100000000E-03 0.  1.
         11   -1    0    0    0    0 -0.00000000000E+00 -0.00000000000E+00 -0.45593999997E+02  0.45594000000E+02  0.51100000000E-03 0. -1.
    9900012    2    1    2    0    0  0.14441060764E+01  0.29053759176E+02  0.28407028835E+02  0.50528860168E+02  0.30000000968E+02 0.  0.
         12    1    1    2    0    0 -0.14441060764E+01 -0.29053759176E+02 -0.28407028835E+02  0.40659139832E+02  0.00000000000E+00 0. -1.
         11    1    3    3    0    0 -0.30125803664E+01  0.13479266393E+02  0.33626630238E+01  0.14215265240E+02  0.51100000000E-03 0. -1.
        -11    1    3    3    0    0  0.53083802127E+00 -0.48977125556E+01  0.22220250553E+01  0.54043290878E+01  0.51100000000E-03 0.  1.
        -12    1    3    3    0    0  0.39258484215E+01  0.20472205338E+02  0.22822340756E+02  0.30909265841E+02  0.00000000000E+00 0.  1.
</event>
<event>
 7    1  0.5972636E-013  0.5052885E+02  0.7816164E-02  0.1300439E+00
        -11   -1    0    0    0    0  0.00000000000E+00  0.00000000000E+00  0.45593999997E+02  0.45594000000E+02  0.51100000000E-03 0.  1.
         11   -1    0    0    0    0 -0.00000000000E+00 -0.00000000000E+00 -0.45593999997E+02  0.45594000000E+02  0.51100000000E-03 0. -1.
    9900012    2    1    2    0    0 -0.22536027081E+02  0.26275570419E+02  0.21328106949E+02  0.50528852647E+02  0.29999978105E+02 0.  0.
         12    1    1    2    0    0  0.22536027081E+02 -0.26275570419E+02 -0.21328106949E+02  0.40659147353E+02  0.00000000000E+00 0. -1.
         11    1    3    3    0    0  0.86794877218E+00 -0.27572548375E+01 -0.28955441167E+00  0.29051043576E+01  0.51100000000E-03 0. -1.
        -11    1    3    3    0    0 -0.20076105678E+02  0.29301943987E+02  0.24551574736E+02  0.43179089417E+02  0.51100000000E-03 0.  1.
        -12    1    3    3    0    0 -0.33278701757E+01 -0.26911872990E+00 -0.29339133756E+01  0.44446588725E+01  0.00000000000E+00 0.  1.
</event>
<event>
 7    1  0.5972636E-013  0.5052886E+02  0.7816164E-02  0.1300439E+00
        -11   -1    0    0    0    0  0.00000000000E+00  0.00000000000E+00  0.45593999997E+02  0.45594000000E+02  0.51100000000E-03 0.  1.
         11   -1    0    0    0    0 -0.00000000000E+00 -0.00000000000E+00 -0.45593999997E+02  0.45594000000E+02  0.51100000000E-03 0. -1.
    9900012    2    1    2    0    0  0.12301653452E+02 -0.23867782192E+02  0.30531365507E+02  0.50528856082E+02  0.29999988547E+02 0.  0.
         12    1    1    2    0    0 -0.12301653452E+02  0.23867782192E+02 -0.30531365507E+02  0.40659143918E+02  0.00000000000E+00 0. -1.
         11    1    3    3    0    0 -0.46614100294E+01 -0.24708858503E+01  0.32240629487E+00  0.52856377503E+01  0.51100000000E-03 0. -1.
        -11    1    3    3    0    0  0.17616209136E+02 -0.10052285868E+02  0.11396042068E+02  0.23264759844E+02  0.51100000000E-03 0.  1.
        -12    1    3    3    0    0 -0.65314565440E+00 -0.11344610473E+02  0.18812917144E+02  0.21978458488E+02  0.00000000000E+00 0.  1.
</event>
<event>
 7    1  0.5972636E-013  0.5052886E+02  0.7816164E-02  0.1300439E+00
        -11   -1    0    0    0    0  0.00000000000E+00  0.00000000000E+00  0.45593999997E+02  0.45594000000E+02  0.51100000000E-03 0.  1.
         11   -1    0    0    0    0 -0.00000000000E+00 -0.00000000000E+00 -0.45593999997E+02  0.45594000000E+02  0.51100000000E-03 0. -1.
    9900012    2    1    2    0    0 -0.24265728174E+02  0.32621491911E+02 -0.42233869201E+00  0.50528859966E+02  0.30000000353E+02 0.  0.
         12    1    1    2    0    0  0.24265728174E+02 -0.32621491911E+02  0.42233869201E+00  0.40659140034E+02  0.00000000000E+00 0. -1.
         11    1    3    3    0    0 -0.46217981794E+01 -0.14733677119E+01  0.44536100992E+00  0.48713630039E+01  0.51100000000E-03 0. -1.
        -11    1    3    3    0    0 -0.24645544503E+02  0.28163864979E+02 -0.31862356456E+01  0.37560061931E+02  0.51100000000E-03 0.  1.
        -12    1    3    3    0    0  0.50016145084E+01  0.59309946438E+01  0.23185359436E+01  0.80974350308E+01  0.00000000000E+00 0.  1.
</event>
<event>
 7    1  0.5972636E-013  0.5052886E+02  0.7816164E-02  0.1300439E+00
        -11   -1    0    0    0    0  0.00000000000E+00  0.00000000000E+00  0.45593999997E+02  0.45594000000E+02  0.51100000000E-03 0. -1.
         11   -1    0    0    0    0 -0.00000000000E+00 -0.00000000000E+00 -0.45593999997E+02  0.45594000000E+02  0.51100000000E-03 0.  1.
    9900012    2    1    2    0    0 -0.35533574018E+02  0.13152000568E+02  0.14749764756E+02  0.50528861276E+02  0.30000004333E+02 0.  0.
         12    1    1    2    0    0  0.35533574018E+02 -0.13152000568E+02 -0.14749764756E+02  0.40659138724E+02  0.00000000000E+00 0. -1.
         11    1    3    3    0    0 -0.58842205256E+00 -0.47526141648E+01  0.36174372707E+01  0.60016193298E+01  0.51100000000E-03 0. -1.
        -11    1    3    3    0    0 -0.20781215337E+02  0.78736724960E+01 -0.26286148884E+01  0.22377739965E+02  0.51100000000E-03 0.  1.
         12    1    3    3    0    0 -0.14163936629E+02  0.10030942237E+02  0.13760942373E+02  0.22149501981E+02  0.00000000000E+00 0. -1.
</event>
<event>
 7    1  0.5972636E-013  0.5052885E+02  0.7816164E-02  0.1300439E+00
        -11   -1    0    0    0    0  0.00000000000E+00  0.00000000000E+00  0.45593999997E+02  0.45594000000E+02  0.51100000000E-03 0.  1.
         11   -1    0    0    0    0 -0.00000000000E+00 -0.00000000000E+00 -0.45593999997E+02  0.45594000000E+02  0.51100000000E-03 0. -1.
    9900012    2    1    2    0    0 -0.87877710279E+01  0.60012415932E+01  0.39241898559E+02  0.50528850688E+02  0.29999972150E+02 0.  0.
         12    1    1    2    0    0  0.87877710279E+01 -0.60012415932E+01 -0.39241898559E+02  0.40659149312E+02  0.00000000000E+00 0. -1.
         11    1    3    3    0    0 -0.22749401692E+01  0.23051924288E+01 -0.21072637645E+01  0.38639132678E+01  0.51100000000E-03 0. -1.
        -11    1    3    3    0    0 -0.13826286885E+02  0.30812577767E+01  0.24780528371E+02  0.28543562236E+02  0.51100000000E-03 0.  1.
         12    1    3    3    0    0  0.73134560267E+01  0.61479138764E+00  0.16568633952E+02  0.18121375184E+02  0.00000000000E+00 0. -1.
</event>
<event>
 7    1  0.5972636E-013  0.5052886E+02  0.7816164E-02  0.1300439E+00
        -11   -1    0    0    0    0  0.00000000000E+00  0.00000000000E+00  0.45593999997E+02  0.45594000000E+02  0.51100000000E-03 0. -1.
         11   -1    0    0    0    0 -0.00000000000E+00 -0.00000000000E+00 -0.45593999997E+02  0.45594000000E+02  0.51100000000E-03 0.  1.
    9900012    2    1    2    0    0  0.30356214487E+02 -0.20564757429E+02 -0.17571476829E+02  0.50528858297E+02  0.29999995280E+02 0.  0.
         12    1    1    2    0    0 -0.30356214487E+02  0.20564757429E+02  0.17571476829E+02  0.40659141703E+02  0.00000000000E+00 0. -1.
         11    1    3    3    0    0  0.25272964858E+02 -0.77408273526E+01 -0.14569461994E+02  0.30181325085E+02  0.51100000000E-03 0. -1.
        -11    1    3    3    0    0  0.29253474292E+00 -0.11331495844E+02 -0.75139123809E+01  0.13599531395E+02  0.51100000000E-03 0.  1.
         12    1    3    3    0    0  0.47907148862E+01 -0.14924342321E+01  0.45118975461E+01  0.67480018172E+01  0.00000000000E+00 0. -1.
</event>
<event>
 7    1  0.5972636E-013  0.5052882E+02  0.7816164E-02  0.1300439E+00
        -11   -1    0    0    0    0  0.00000000000E+00  0.00000000000E+00  0.45593999997E+02  0.45594000000E+02  0.51100000000E-03 0. -1.
         11   -1    0    0    0    0 -0.00000000000E+00 -0.00000000000E+00 -0.45593999997E+02  0.45594000000E+02  0.51100000000E-03 0.  1.
    9900012    2    1    2    0    0 -0.22717877089E+02  0.18000134672E+02  0.28514246242E+02  0.50528818671E+02  0.29999874831E+02 0.  0.
         12    1    1    2    0    0  0.22717877089E+02 -0.18000134672E+02 -0.28514246242E+02  0.40659181329E+02  0.00000000000E+00 0. -1.
         11    1    3    3    0    0 -0.12518752331E+02  0.10405693819E+02  0.30990182563E+02  0.35005557263E+02  0.51100000000E-03 0. -1.
        -11    1    3    3    0    0 -0.80617302029E+01  0.92969894364E+01 -0.31631869001E+01  0.12705560124E+02  0.51100000000E-03 0.  1.
         12    1    3    3    0    0 -0.21373945554E+01 -0.17025485830E+01  0.68725057898E+00  0.28177012831E+01  0.00000000000E+00 0. -1.
</event>
<event>
 7    1  0.5972636E-013  0.5052886E+02  0.7816164E-02  0.1300439E+00
        -11   -1    0    0    0    0  0.00000000000E+00  0.00000000000E+00  0.45593999997E+02  0.45594000000E+02  0.51100000000E-03 0. -1.
         11   -1    0    0    0    0 -0.00000000000E+00 -0.00000000000E+00 -0.45593999997E+02  0.45594000000E+02  0.51100000000E-03 0.  1.
    9900012    2    1    2    0    0 -0.29143079688E+01  0.28456265695E+02 -0.28894864672E+02  0.50528862618E+02  0.30000008414E+02 0.  0.
         12    1    1    2    0    0  0.29143079688E+01 -0.28456265695E+02  0.28894864672E+02  0.40659137382E+02  0.00000000000E+00 0. -1.
         11    1    3    3    0    0 -0.49207225622E+01  0.53719815623E+01 -0.13355419014E+02  0.15213116503E+02  0.51100000000E-03 0. -1.
        -11    1    3    3    0    0  0.10934546935E+02  0.18355515454E+02 -0.84620169350E+01  0.22980317559E+02  0.51100000000E-03 0.  1.
        -12    1    3    3    0    0 -0.89281323417E+01  0.47287686782E+01 -0.70774287230E+01  0.12335428556E+02  0.00000000000E+00 0.  1.
</event>
<event>
 7    1  0.5972636E-013  0.5052885E+02  0.7816164E-02  0.1300439E+00
        -11   -1    0    0    0    0  0.00000000000E+00  0.00000000000E+00  0.45593999997E+02  0.45594000000E+02  0.51100000000E-03 0.  1.
         11   -1    0    0    0    0 -0.00000000000E+00 -0.00000000000E+00 -0.45593999997E+02  0.45594000000E+02  0.51100000000E-03 0. -1.
    9900012    2    1    2    0    0  0.28490644692E+02 -0.45347977446E+01  0.28651094451E+02  0.50528850491E+02  0.29999971553E+02 0.  0.
         12    1    1    2    0    0 -0.28490644692E+02  0.45347977446E+01 -0.28651094451E+02  0.40659149509E+02  0.00000000000E+00 0. -1.
         11    1    3    3    0    0 -0.10452697479E+01  0.75657335423E+01  0.81967364172E+01  0.11203544128E+02  0.51100000000E-03 0. -1.
        -11    1    3    3    0    0  0.16899611536E+02 -0.89651632822E+01  0.17603858961E+02  0.25997439745E+02  0.51100000000E-03 0.  1.
         12    1    3    3    0    0  0.12636302904E+02 -0.31353680047E+01  0.28504990727E+01  0.13327866618E+02  0.00000000000E+00 0. -1.
</event>
<event>
 7    1  0.5972636E-013  0.5052886E+02  0.7816164E-02  0.1300439E+00
        -11   -1    0    0    0    0  0.00000000000E+00  0.00000000000E+00  0.45593999997E+02  0.45594000000E+02  0.51100000000E-03 0. -1.
         11   -1    0    0    0    0 -0.00000000000E+00 -0.00000000000E+00 -0.45593999997E+02  0.45594000000E+02  0.51100000000E-03 0.  1.
    9900012    2    1    2    0    0  0.39326018249E+02 -0.41268234948E+01  0.94656765818E+01  0.50528863061E+02  0.30000009759E+02 0.  0.
         12    1    1    2    0    0 -0.39326018249E+02  0.41268234948E+01 -0.94656765818E+01  0.40659136939E+02  0.00000000000E+00 0. -1.
         11    1    3    3    0    0  0.19280421859E+02  0.25337755416E+01  0.15174455502E+02  0.24666146550E+02  0.51100000000E-03 0. -1.
        -11    1    3    3    0    0  0.20019035491E+02 -0.80519826602E+01 -0.17292295908E+01  0.21646857555E+02  0.51100000000E-03 0.  1.
         12    1    3    3    0    0  0.26560899200E-01  0.13913836238E+01 -0.39795493297E+01  0.42158589560E+01  0.00000000000E+00 0. -1.
</event>
<event>
 7    1  0.5972636E-013  0.5052886E+02  0.7816164E-02  0.1300439E+00
        -11   -1    0    0    0    0  0.00000000000E+00  0.00000000000E+00  0.45593999997E+02  0.45594000000E+02  0.51100000000E-03 0. -1.
         11   -1    0    0    0    0 -0.00000000000E+00 -0.00000000000E+00 -0.45593999997E+02  0.45594000000E+02  0.51100000000E-03 0.  1.
    9900012    2    1    2    0    0  0.20060602874E+02 -0.12763066291E+02 -0.32982449364E+02  0.50528860624E+02  0.30000002351E+02 0.  0.
         12    1    1    2    0    0 -0.20060602874E+02  0.12763066291E+02  0.32982449364E+02  0.40659139376E+02  0.00000000000E+00 0. -1.
         11    1    3    3    0    0  0.24058227905E+02 -0.30822532197E+01 -0.15471269960E+02  0.28769059930E+02  0.51100000000E-03 0. -1.
        -11    1    3    3    0    0 -0.52954770770E+01 -0.67558073683E+01 -0.80343666425E+01  0.11757298086E+02  0.51100000000E-03 0.  1.
        -12    1    3    3    0    0  0.12978520455E+01 -0.29250057025E+01 -0.94768127615E+01  0.10002502607E+02  0.00000000000E+00 0.  1.
</event>
<event>
 7    1  0.5972636E-013  0.5052890E+02  0.7816164E-02  0.1300439E+00
        -11   -1    0    0    0    0  0.00000000000E+00  0.00000000000E+00  0.45593999997E+02  0.45594000000E+02  0.51100000000E-03 0. -1.
         11   -1    0    0    0    0 -0.00000000000E+00 -0.00000000000E+00 -0.45593999997E+02  0.45594000000E+02  0.51100000000E-03 0.  1.
    9900012    2    1    2    0    0 -0.32978318459E+02  0.14596662312E+02  0.18775783107E+02  0.50528904212E+02  0.30000134841E+02 0.  0.
         12    1    1    2    0    0  0.32978318459E+02 -0.14596662312E+02 -0.18775783107E+02  0.40659095788E+02  0.00000000000E+00 0. -1.
         11    1    3    3    0    0 -0.83263945461E+01 -0.75946619696E+01  0.72522091874E+01  0.13401577330E+02  0.51100000000E-03 0. -1.
        -11    1    3    3    0    0 -0.20876820517E+02  0.19631141393E+02  0.14046888183E+02  0.31914548645E+02  0.51100000000E-03 0.  1.
        -12    1    3    3    0    0 -0.37751033961E+01  0.25601828889E+01 -0.25233142639E+01  0.52127782372E+01  0.00000000000E+00 0.  1.
</event>
<event>
 7    1  0.5972636E-013  0.5052884E+02  0.7816164E-02  0.1300439E+00
        -11   -1    0    0    0    0  0.00000000000E+00  0.00000000000E+00  0.45593999997E+02  0.45594000000E+02  0.51100000000E-03 0. -1.
         11   -1    0    0    0    0 -0.00000000000E+00 -0.00000000000E+00 -0.45593999997E+02  0.45594000000E+02  0.51100000000E-03 0.  1.
    9900012    2    1    2    0    0 -0.38229600042E+02  0.11260922921E+02  0.80533708200E+01  0.50528837614E+02  0.29999932410E+02 0.  0.
         12    1    1    2    0    0  0.38229600042E+02 -0.11260922921E+02 -0.80533708200E+01  0.40659162386E+02  0.00000000000E+00 0. -1.
         11    1    3    3    0    0 -0.86689623959E+01  0.10077603055E+02 -0.89725742707E+01  0.16037957528E+02  0.51100000000E-03 0. -1.
        -11    1    3    3    0    0 -0.14334671596E+02  0.65577745997E+00  0.54217783539E+01  0.15339769706E+02  0.51100000000E-03 0.  1.
         12    1    3    3    0    0 -0.15225966050E+02  0.52754240649E+00  0.11604166737E+02  0.19151110380E+02  0.00000000000E+00 0. -1.
</event>
<event>
 7    1  0.5972636E-013  0.5052885E+02  0.7816164E-02  0.1300439E+00
        -11   -1    0    0    0    0  0.00000000000E+00  0.00000000000E+00  0.45593999997E+02  0.45594000000E+02  0.51100000000E-03 0.  1.
         11   -1    0    0    0    0 -0.00000000000E+00 -0.00000000000E+00 -0.45593999997E+02  0.45594000000E+02  0.51100000000E-03 0. -1.
    9900012    2    1    2    0    0  0.37488033831E+02  0.45597584284E+01  0.15067250869E+02  0.50528854335E+02  0.29999983237E+02 0.  0.
         12    1    1    2    0    0 -0.37488033831E+02 -0.45597584284E+01 -0.15067250869E+02  0.40659145665E+02  0.00000000000E+00 0. -1.
         11    1    3    3    0    0  0.30437189188E+02 -0.37250552040E+01  0.39886262138E+01  0.30922607608E+02  0.51100000000E-03 0. -1.
        -11    1    3    3    0    0  0.45042964011E+01  0.69884324943E+01  0.15568555297E+00  0.83157148249E+01  0.51100000000E-03 0.  1.
        -12    1    3    3    0    0  0.25465482423E+01  0.12963811381E+01  0.10922939102E+02  0.11290531902E+02  0.00000000000E+00 0.  1.
</event>
<event>
 7    1  0.5972636E-013  0.5052886E+02  0.7816164E-02  0.1300439E+00
        -11   -1    0    0    0    0  0.00000000000E+00  0.00000000000E+00  0.45593999997E+02  0.45594000000E+02  0.51100000000E-03 0.  1.
         11   -1    0    0    0    0 -0.00000000000E+00 -0.00000000000E+00 -0.45593999997E+02  0.45594000000E+02  0.51100000000E-03 0. -1.
    9900012    2    1    2    0    0 -0.39940853711E+02  0.37461083094E+01  0.66227325620E+01  0.50528859463E+02  0.29999998825E+02 0.  0.
         12    1    1    2    0    0  0.39940853711E+02 -0.37461083094E+01 -0.66227325620E+01  0.40659140537E+02  0.00000000000E+00 0. -1.
         11    1    3    3    0    0 -0.21287381212E+02 -0.31335734574E+01 -0.10217286532E+02  0.23819421190E+02  0.51100000000E-03 0. -1.
        -11    1    3    3    0    0 -0.17076449140E+02  0.41408919123E+01  0.14301000381E+02  0.22655478658E+02  0.51100000000E-03 0.  1.
         12    1    3    3    0    0 -0.15770233581E+01  0.27387898545E+01  0.25390187127E+01  0.40539596153E+01  0.00000000000E+00 0. -1.
</event>
<event>
 7    1  0.5972636E-013  0.5052886E+02  0.7816164E-02  0.1300439E+00
        -11   -1    0    0    0    0  0.00000000000E+00  0.00000000000E+00  0.45593999997E+02  0.45594000000E+02  0.51100000000E-03 0.  1.
         11   -1    0    0    0    0 -0.00000000000E+00 -0.00000000000E+00 -0.45593999997E+02  0.45594000000E+02  0.51100000000E-03 0. -1.
    9900012    2    1    2    0    0  0.13048194677E+02  0.11637574455E+02  0.36708003840E+02  0.50528855033E+02  0.29999985357E+02 0.  0.
         12    1    1    2    0    0 -0.13048194677E+02 -0.11637574455E+02 -0.36708003840E+02  0.40659144967E+02  0.00000000000E+00 0. -1.
         11    1    3    3    0    0 -0.51382009766E+01  0.12218140438E+01 -0.24646062761E+01  0.58282264190E+01  0.51100000000E-03 0. -1.
        -11    1    3    3    0    0  0.67527360377E+01  0.66938921139E+01  0.17221576049E+02  0.19672069477E+02  0.51100000000E-03 0.  1.
         12    1    3    3    0    0  0.11433659616E+02  0.37218682970E+01  0.21951034068E+02  0.25028559137E+02  0.00000000000E+00 0. -1.
</event>
<event>
 7    1  0.5972636E-013  0.5052885E+02  0.7816164E-02  0.1300439E+00
        -11   -1    0    0    0    0  0.00000000000E+00  0.00000000000E+00  0.45593999997E+02  0.45594000000E+02  0.51100000000E-03 0.  1.
         11   -1    0    0    0    0 -0.00000000000E+00 -0.00000000000E+00 -0.45593999997E+02  0.45594000000E+02  0.51100000000E-03 0. -1.
    9900012    2    1    2    0    0 -0.81466751793E+01 -0.15556879669E+02  0.36671263376E+02  0.50528851225E+02  0.29999973784E+02 0.  0.
         12    1    1    2    0    0  0.81466751793E+01  0.15556879669E+02 -0.36671263376E+02  0.40659148775E+02  0.00000000000E+00 0. -1.
         11    1    3    3    0    0  0.10975563952E+01  0.71304649909E+01  0.59380142936E+01  0.93438843657E+01  0.51100000000E-03 0. -1.
        -11    1    3    3    0    0 -0.47254590825E+01 -0.22389181369E+02  0.25959574028E+02  0.34604983599E+02  0.51100000000E-03 0.  1.
         12    1    3    3    0    0 -0.45187724920E+01 -0.29816329011E+00  0.47736750543E+01  0.65799832603E+01  0.00000000000E+00 0. -1.
</event>
<event>
 7    1  0.5972636E-013  0.5052886E+02  0.7816164E-02  0.1300439E+00
        -11   -1    0    0    0    0  0.00000000000E+00  0.00000000000E+00  0.45593999997E+02  0.45594000000E+02  0.51100000000E-03 0. -1.
         11   -1    0    0    0    0 -0.00000000000E+00 -0.00000000000E+00 -0.45593999997E+02  0.45594000000E+02  0.51100000000E-03 0.  1.
    9900012    2    1    2    0    0  0.33081444496E+02  0.13521709484E+02 -0.19389350348E+02  0.50528861983E+02  0.30000006485E+02 0.  0.
         12    1    1    2    0    0 -0.33081444496E+02 -0.13521709484E+02  0.19389350348E+02  0.40659138017E+02  0.00000000000E+00 0. -1.
         11    1    3    3    0    0  0.20091971099E+02 -0.65017172362E+00 -0.12351827139E+02  0.23594017458E+02  0.51100000000E-03 0. -1.
        -11    1    3    3    0    0  0.14515309750E+01  0.13565430459E+02 -0.71021816853E+01  0.15380794214E+02  0.51100000000E-03 0.  1.
        -12    1    3    3    0    0  0.11537942423E+02  0.60645074920E+00  0.64658476806E-01  0.11554050311E+02  0.00000000000E+00 0.  1.
</event>
<event>
 7    1  0.5972636E-013  0.5052885E+02  0.7816164E-02  0.1300439E+00
        -11   -1    0    0    0    0  0.00000000000E+00  0.00000000000E+00  0.45593999997E+02  0.45594000000E+02  0.51100000000E-03 0. -1.
         11   -1    0    0    0    0 -0.00000000000E+00 -0.00000000000E+00 -0.45593999997E+02  0.45594000000E+02  0.51100000000E-03 0.  1.
    9900012    2    1    2    0    0  0.20848612620E+02  0.34495386248E+02 -0.53450836132E+01  0.50528852943E+02  0.29999979006E+02 0.  0.
         12    1    1    2    0    0 -0.20848612620E+02 -0.34495386248E+02  0.53450836132E+01  0.40659147057E+02  0.00000000000E+00 0. -1.
         11    1    3    3    0    0  0.21976850504E+01  0.15876443199E+02  0.88004618973E+01  0.18284950044E+02  0.51100000000E-03 0. -1.
        -11    1    3    3    0    0  0.18811041648E+02  0.16665353747E+02 -0.89277820642E+01  0.26670106791E+02  0.51100000000E-03 0.  1.
        -12    1    3    3    0    0 -0.16011407841E+00  0.19535893015E+01 -0.52177634463E+01  0.55737961085E+01  0.00000000000E+00 0.  1.
</event>
<event>
 7    1  0.5972636E-013  0.5052886E+02  0.7816164E-02  0.1300439E+00
        -11   -1    0    0    0    0  0.00000000000E+00  0.00000000000E+00  0.45593999997E+02  0.45594000000E+02  0.51100000000E-03 0. -1.
         11   -1    0    0    0    0 -0.00000000000E+00 -0.00000000000E+00 -0.45593999997E+02  0.45594000000E+02  0.51100000000E-03 0.  1.
    9900012    2    1    2    0    0 -0.36116255245E+02  0.96896792534E+01 -0.15965329678E+02  0.50528861683E+02  0.30000005572E+02 0.  0.
         12    1    1    2    0    0  0.36116255245E+02 -0.96896792534E+01  0.15965329678E+02  0.40659138317E+02  0.00000000000E+00 0. -1.
         11    1    3    3    0    0 -0.27601129806E+01 -0.67553518962E+01 -0.40736856606E+00  0.73088270137E+01  0.51100000000E-03 0. -1.
        -11    1    3    3    0    0 -0.26394756127E+02  0.19220710866E+02 -0.11030798307E+02  0.34464436580E+02  0.51100000000E-03 0.  1.
         12    1    3    3    0    0 -0.69613861375E+01 -0.27756797166E+01 -0.45271628051E+01  0.87555980897E+01  0.00000000000E+00 0. -1.
</event>
<event>
 7    1  0.5972636E-013  0.5052879E+02  0.7816164E-02  0.1300439E+00
        -11   -1    0    0    0    0  0.00000000000E+00  0.00000000000E+00  0.45593999997E+02  0.45594000000E+02  0.51100000000E-03 0. -1.
         11   -1    0    0    0    0 -0.00000000000E+00 -0.00000000000E+00 -0.45593999997E+02  0.45594000000E+02  0.51100000000E-03 0.  1.
    9900012    2    1    2    0    0 -0.78611073027E+01 -0.39275067537E+02 -0.69888226656E+01  0.50528787264E+02  0.29999779368E+02 0.  0.
         12    1    1    2    0    0  0.78611073027E+01  0.39275067537E+02  0.69888226656E+01  0.40659212736E+02  0.00000000000E+00 0. -1.
         11    1    3    3    0    0  0.56932406952E+00 -0.52856821498E+01 -0.14465115325E+01  0.55095336971E+01  0.51100000000E-03 0. -1.
        -11    1    3    3    0    0 -0.13242083095E+02 -0.73367810983E+01 -0.91615331116E+01  0.17695050461E+02  0.51100000000E-03 0.  1.
        -12    1    3    3    0    0  0.48116517232E+01 -0.26652604289E+02  0.36192219786E+01  0.27324203106E+02  0.00000000000E+00 0.  1.
</event>
<event>
 7    1  0.5972636E-013  0.5052886E+02  0.7816164E-02  0.1300439E+00
        -11   -1    0    0    0    0  0.00000000000E+00  0.00000000000E+00  0.45593999997E+02  0.45594000000E+02  0.51100000000E-03 0.  1.
         11   -1    0    0    0    0 -0.00000000000E+00 -0.00000000000E+00 -0.45593999997E+02  0.45594000000E+02  0.51100000000E-03 0. -1.
    9900012    2    1    2    0    0 -0.22249590959E+02 -0.32730115302E+02  0.93199338098E+01  0.50528856972E+02  0.29999991253E+02 0.  0.
         12    1    1    2    0    0  0.22249590959E+02  0.32730115302E+02 -0.93199338098E+01  0.40659143028E+02  0.00000000000E+00 0. -1.
         11    1    3    3    0    0 -0.20106847162E+02 -0.76815767489E+01 -0.97941273619E+00  0.21546488663E+02  0.51100000000E-03 0. -1.
        -11    1    3    3    0    0  0.27345948842E+01 -0.16128669976E+02  0.91697339309E+01  0.18753560329E+02  0.51100000000E-03 0.  1.
         12    1    3    3    0    0 -0.48773386812E+01 -0.89198685766E+01  0.11296126151E+01  0.10228807980E+02  0.00000000000E+00 0. -1.
</event>
<event>
 7    1  0.5972636E-013  0.5052884E+02  0.7816164E-02  0.1300439E+00
        -11   -1    0    0    0    0  0.00000000000E+00  0.00000000000E+00  0.45593999997E+02  0.45594000000E+02  0.51100000000E-03 0. -1.
         11   -1    0    0    0    0 -0.00000000000E+00 -0.00000000000E+00 -0.45593999997E+02  0.45594000000E+02  0.51100000000E-03 0.  1.
    9900012    2    1    2    0    0 -0.28597130746E+02  0.15946690227E+02 -0.24105482207E+02  0.50528842501E+02  0.29999947266E+02 0.  0.
         12    1    1    2    0    0  0.28597130746E+02 -0.15946690227E+02  0.24105482207E+02  0.40659157499E+02  0.00000000000E+00 0. -1.
         11    1    3    3    0    0 -0.79115692621E+01 -0.29270519813E+01 -0.58575498378E+01  0.10269929496E+02  0.51100000000E-03 0. -1.
        -11    1    3    3    0    0 -0.23099867298E+01  0.11892350774E+02  0.17232924125E+01  0.12236575608E+02  0.51100000000E-03 0.  1.
        -12    1    3    3    0    0 -0.18375574754E+02  0.69813914347E+01 -0.19971224782E+02  0.28022337397E+02  0.00000000000E+00 0.  1.
</event>
<event>
 7    1  0.5972636E-013  0.5052886E+02  0.7816164E-02  0.1300439E+00
        -11   -1    0    0    0    0  0.00000000000E+00  0.00000000000E+00  0.45593999997E+02  0.45594000000E+02  0.51100000000E-03 0.  1.
         11   -1    0    0    0    0 -0.00000000000E+00 -0.00000000000E+00 -0.45593999997E+02  0.45594000000E+02  0.51100000000E-03 0. -1.
    9900012    2    1    2    0    0 -0.11078483567E+01 -0.23856397364E+02  0.32906082108E+02  0.50528864952E+02  0.30000015507E+02 0.  0.
         12    1    1    2    0    0  0.11078483567E+01  0.23856397364E+02 -0.32906082108E+02  0.40659135048E+02  0.00000000000E+00 0. -1.
         11    1    3    3    0    0  0.38705655616E+01 -0.15726935639E+01 -0.48042335845E+01  0.63667341242E+01  0.51100000000E-03 0. -1.
        -11    1    3    3    0    0 -0.63025435014E+00 -0.86450352912E+01  0.14140691262E+02  0.16585927932E+02  0.51100000000E-03 0.  1.
         12    1    3    3    0    0 -0.43481595682E+01 -0.13638668509E+02  0.23569624431E+02  0.27576202895E+02  0.00000000000E+00 0. -1.
</event>
<event>
 7    1  0.5972636E-013  0.5052886E+02  0.7816164E-02  0.1300439E+00
        -11   -1    0    0    0    0  0.00000000000E+00  0.00000000000E+00  0.45593999997E+02  0.45594000000E+02  0.51100000000E-03 0. -1.
         11   -1    0    0    0    0 -0.00000000000E+00 -0.00000000000E+00 -0.45593999997E+02  0.45594000000E+02  0.51100000000E-03 0.  1.
    9900012    2    1    2    0    0 -0.39437309531E+02 -0.78065298223E+01  0.60763534161E+01  0.50528863736E+02  0.30000011812E+02 0.  0.
         12    1    1    2    0    0  0.39437309531E+02  0.78065298223E+01 -0.60763534161E+01  0.40659136264E+02  0.00000000000E+00 0. -1.
         11    1    3    3    0    0 -0.16309549549E+01 -0.34319593852E+01 -0.45589381878E+01  0.59348358821E+01  0.51100000000E-03 0. -1.
        -11    1    3    3    0    0 -0.39441656271E+02 -0.12296438046E+01  0.11165154908E+02  0.41009961688E+02  0.51100000000E-03 0.  1.
        -12    1    3    3    0    0  0.16353016949E+01 -0.31449266325E+01 -0.52986330457E+00  0.35840661655E+01  0.00000000000E+00 0.  1.
</event>
<event>
 7    1  0.5972636E-013  0.5052886E+02  0.7816164E-02  0.1300439E+00
        -11   -1    0    0    0    0  0.00000000000E+00  0.00000000000E+00  0.45593999997E+02  0.45594000000E+02  0.51100000000E-03 0. -1.
         11   -1    0    0    0    0 -0.00000000000E+00 -0.00000000000E+00 -0.45593999997E+02  0.45594000000E+02  0.51100000000E-03 0.  1.
    9900012    2    1    2    0    0  0.95983206099E+00  0.40578336365E+02 -0.23754681643E+01  0.50528861928E+02  0.30000006318E+02 0.  0.
         12    1    1    2    0    0 -0.95983206099E+00 -0.40578336365E+02  0.23754681643E+01  0.40659138072E+02  0.00000000000E+00 0. -1.
         11    1    3    3    0    0 -0.12376020341E+01  0.34586411755E+02  0.45571977187E+01  0.34907299926E+02  0.51100000000E-03 0.  1.
        -11    1    3    3    0    0  0.65269722344E+01  0.68650666332E+01 -0.56182893512E+01  0.11013431887E+02  0.51100000000E-03 0. -1.
         12    1    3    3    0    0 -0.43295381393E+01 -0.87314202291E+00 -0.13143765318E+01  0.46081301152E+01  0.00000000000E+00 0. -1.
</event>
<event>
 7    1  0.5972636E-013  0.5052886E+02  0.7816164E-02  0.1300439E+00
        -11   -1    0    0    0    0  0.00000000000E+00  0.00000000000E+00  0.45593999997E+02  0.45594000000E+02  0.51100000000E-03 0. -1.
         11   -1    0    0    0    0 -0.00000000000E+00 -0.00000000000E+00 -0.45593999997E+02  0.45594000000E+02  0.51100000000E-03 0.  1.
    9900012    2    1    2    0    0  0.10677596372E+02 -0.33684263436E+02  0.20112808626E+02  0.50528859105E+02  0.29999997735E+02 0.  0.
         12    1    1    2    0    0 -0.10677596372E+02  0.33684263436E+02 -0.20112808626E+02  0.40659140895E+02  0.00000000000E+00 0. -1.
         11    1    3    3    0    0  0.11991894245E+02 -0.22779152667E+01  0.11891588832E+01  0.12264115323E+02  0.51100000000E-03 0. -1.
        -11    1    3    3    0    0  0.46376483269E+01 -0.10585855629E+02  0.56328401033E+01  0.12856788451E+02  0.51100000000E-03 0.  1.
         12    1    3    3    0    0 -0.59519461996E+01 -0.20820492540E+02  0.13290809640E+02  0.25407955330E+02  0.00000000000E+00 0. -1.
</event>
<event>
 7    1  0.5972636E-013  0.5052885E+02  0.7816164E-02  0.1300439E+00
        -11   -1    0    0    0    0  0.00000000000E+00  0.00000000000E+00  0.45593999997E+02  0.45594000000E+02  0.51100000000E-03 0. -1.
         11   -1    0    0    0    0 -0.00000000000E+00 -0.00000000000E+00 -0.45593999997E+02  0.45594000000E+02  0.51100000000E-03 0.  1.
    9900012    2    1    2    0    0 -0.40048064753E+01 -0.30802560771E+02 -0.26236054151E+02  0.50528846513E+02  0.29999959460E+02 0.  0.
         12    1    1    2    0    0  0.40048064753E+01  0.30802560771E+02  0.26236054151E+02  0.40659153487E+02  0.00000000000E+00 0. -1.
         11    1    3    3    0    0 -0.11258678561E+02 -0.43863262996E+01 -0.96922458437E+01  0.15489910623E+02  0.51100000000E-03 0. -1.
        -11    1    3    3    0    0  0.27315182472E+01 -0.19469177689E+02 -0.17961286267E+02  0.26629267291E+02  0.51100000000E-03 0.  1.
         12    1    3    3    0    0  0.45223538387E+01 -0.69470567818E+01  0.14174779603E+01  0.84096685987E+01  0.00000000000E+00 0. -1.
</event>
<event>
 7    1  0.5972636E-013  0.5052887E+02  0.7816164E-02  0.1300439E+00
        -11   -1    0    0    0    0  0.00000000000E+00  0.00000000000E+00  0.45593999997E+02  0.45594000000E+02  0.51100000000E-03 0. -1.
         11   -1    0    0    0    0 -0.00000000000E+00 -0.00000000000E+00 -0.45593999997E+02  0.45594000000E+02  0.51100000000E-03 0.  1.
    9900012    2    1    2    0    0  0.94304748403E+01  0.39314079397E+02 -0.43167652172E+01  0.50528866260E+02  0.30000019484E+02 0.  0.
         12    1    1    2    0    0 -0.94304748403E+01 -0.39314079397E+02  0.43167652172E+01  0.40659133740E+02  0.00000000000E+00 0. -1.
         11    1    3    3    0    0 -0.52952805848E+01 -0.38242496816E+00 -0.28463415987E+01  0.60239443959E+01  0.51100000000E-03 0. -1.
        -11    1    3    3    0    0  0.72390781452E+01  0.95330047094E+01  0.46278852241E+01  0.12833540162E+02  0.51100000000E-03 0.  1.
         12    1    3    3    0    0  0.74866772798E+01  0.30163499656E+02 -0.60983088426E+01  0.31671381702E+02  0.00000000000E+00 0. -1.
</event>
<event>
 7    1  0.5972636E-013  0.5052887E+02  0.7816164E-02  0.1300439E+00
        -11   -1    0    0    0    0  0.00000000000E+00  0.00000000000E+00  0.45593999997E+02  0.45594000000E+02  0.51100000000E-03 0.  1.
         11   -1    0    0    0    0 -0.00000000000E+00 -0.00000000000E+00 -0.45593999997E+02  0.45594000000E+02  0.51100000000E-03 0. -1.
    9900012    2    1    2    0    0  0.57296271670E+01  0.24012726152E+02  0.32306741260E+02  0.50528866025E+02  0.30000018770E+02 0.  0.
         12    1    1    2    0    0 -0.57296271670E+01 -0.24012726152E+02 -0.32306741260E+02  0.40659133975E+02  0.00000000000E+00 0. -1.
         11    1    3    3    0    0  0.61572564688E+01 -0.87051712426E+00 -0.12853652518E+01  0.63499426279E+01  0.51100000000E-03 0. -1.
        -11    1    3    3    0    0 -0.68384863551E+01  0.17369445571E+02  0.24060489835E+02  0.30452745466E+02  0.51100000000E-03 0.  1.
         12    1    3    3    0    0  0.64108570533E+01  0.75137977058E+01  0.95316166772E+01  0.13726177931E+02  0.00000000000E+00 0. -1.
</event>
<event>
 7    1  0.5972636E-013  0.5052886E+02  0.7816164E-02  0.1300439E+00
        -11   -1    0    0    0    0  0.00000000000E+00  0.00000000000E+00  0.45593999997E+02  0.45594000000E+02  0.51100000000E-03 0.  1.
         11   -1    0    0    0    0 -0.00000000000E+00 -0.00000000000E+00 -0.45593999997E+02  0.45594000000E+02  0.51100000000E-03 0. -1.
    9900012    2    1    2    0    0  0.89123884531E+01 -0.34389234456E+02  0.19776641744E+02  0.50528859907E+02  0.30000000174E+02 0.  0.
         12    1    1    2    0    0 -0.89123884531E+01  0.34389234456E+02 -0.19776641744E+02  0.40659140093E+02  0.00000000000E+00 0. -1.
         11    1    3    3    0    0  0.12048768960E+01 -0.15609768836E+02 -0.33911021972E+01  0.16019244234E+02  0.51100000000E-03 0. -1.
        -11    1    3    3    0    0 -0.66462232177E+00 -0.80663551212E+00  0.11411242076E+02  0.11459006487E+02  0.51100000000E-03 0.  1.
         12    1    3    3    0    0  0.83721338789E+01 -0.17972830108E+02  0.11756501865E+02  0.23050609187E+02  0.00000000000E+00 0. -1.
</event>
<event>
 7    1  0.5972636E-013  0.5052885E+02  0.7816164E-02  0.1300439E+00
        -11   -1    0    0    0    0  0.00000000000E+00  0.00000000000E+00  0.45593999997E+02  0.45594000000E+02  0.51100000000E-03 0.  1.
         11   -1    0    0    0    0 -0.00000000000E+00 -0.00000000000E+00 -0.45593999997E+02  0.45594000000E+02  0.51100000000E-03 0. -1.
    9900012    2    1    2    0    0  0.15614368633E+02  0.21423764971E+01  0.37480234591E+02  0.50528852569E+02  0.29999977868E+02 0.  0.
         12    1    1    2    0    0 -0.15614368633E+02 -0.21423764971E+01 -0.37480234591E+02  0.40659147431E+02  0.00000000000E+00 0. -1.
         11    1    3    3    0    0 -0.60648780566E+01 -0.17190032565E+01  0.17823064674E+01  0.65509033455E+01  0.51100000000E-03 0. -1.
        -11    1    3    3    0    0  0.17215841739E+02 -0.45227539941E+00  0.32971705420E+02  0.37198428978E+02  0.51100000000E-03 0.  1.
         12    1    3    3    0    0  0.44634049506E+01  0.43136551530E+01  0.27262227030E+01  0.67795202455E+01  0.00000000000E+00 0. -1.
</event>
<event>
 7    1  0.5972636E-013  0.5052886E+02  0.7816164E-02  0.1300439E+00
        -11   -1    0    0    0    0  0.00000000000E+00  0.00000000000E+00  0.45593999997E+02  0.45594000000E+02  0.51100000000E-03 0. -1.
         11   -1    0    0    0    0 -0.00000000000E+00 -0.00000000000E+00 -0.45593999997E+02  0.45594000000E+02  0.51100000000E-03 0.  1.
    9900012    2    1    2    0    0 -0.12122846126E+02 -0.33672652851E+02 -0.19296495293E+02  0.50528859837E+02  0.29999999959E+02 0.  0.
         12    1    1    2    0    0  0.12122846126E+02  0.33672652851E+02  0.19296495293E+02  0.40659140163E+02  0.00000000000E+00 0. -1.
         11    1    3    3    0    0  0.20449971078E+01 -0.14555308662E+02 -0.20492307369E+02  0.25218518692E+02  0.51100000000E-03 0. -1.
        -11    1    3    3    0    0 -0.96971440511E+01 -0.12177803203E+02 -0.32963798056E+01  0.15912247286E+02  0.51100000000E-03 0.  1.
         12    1    3    3    0    0 -0.44706991828E+01 -0.69395409857E+01  0.44921918822E+01  0.93980938589E+01  0.00000000000E+00 0. -1.
</event>
<event>
 7    1  0.5972636E-013  0.5052887E+02  0.7816164E-02  0.1300439E+00
        -11   -1    0    0    0    0  0.00000000000E+00  0.00000000000E+00  0.45593999997E+02  0.45594000000E+02  0.51100000000E-03 0.  1.
         11   -1    0    0    0    0 -0.00000000000E+00 -0.00000000000E+00 -0.45593999997E+02  0.45594000000E+02  0.51100000000E-03 0. -1.
    9900012    2    1    2    0    0  0.81602721645E+00 -0.34199951134E+02  0.21974134076E+02  0.50528866630E+02  0.30000020607E+02 0.  0.
         12    1    1    2    0    0 -0.81602721645E+00  0.34199951134E+02 -0.21974134076E+02  0.40659133370E+02  0.00000000000E+00 0. -1.
         11    1    3    3    0    0  0.13051447367E+00 -0.27898736204E+01  0.12262419219E+02  0.12576460321E+02  0.51100000000E-03 0. -1.
        -11    1    3    3    0    0 -0.32632033397E+01 -0.11343384465E+02 -0.49386321514E+01  0.12794958185E+02  0.51100000000E-03 0.  1.
         12    1    3    3    0    0  0.39487160825E+01 -0.20066693049E+02  0.14650347009E+02  0.25157448124E+02  0.00000000000E+00 0. -1.
</event>
<event>
 7    1  0.5972636E-013  0.5052885E+02  0.7816164E-02  0.1300439E+00
        -11   -1    0    0    0    0  0.00000000000E+00  0.00000000000E+00  0.45593999997E+02  0.45594000000E+02  0.51100000000E-03 0. -1.
         11   -1    0    0    0    0 -0.00000000000E+00 -0.00000000000E+00 -0.45593999997E+02  0.45594000000E+02  0.51100000000E-03 0.  1.
    9900012    2    1    2    0    0  0.36133137055E+02  0.45531643991E+01  0.18078483111E+02  0.50528850340E+02  0.29999971095E+02 0.  0.
         12    1    1    2    0    0 -0.36133137055E+02 -0.45531643991E+01 -0.18078483111E+02  0.40659149660E+02  0.00000000000E+00 0. -1.
         11    1    3    3    0    0  0.65897709058E+01 -0.42865007649E+01  0.12020320356E+02  0.14362704172E+02  0.51100000000E-03 0. -1.
        -11    1    3    3    0    0  0.15864888954E+02  0.95127482389E+01 -0.43043207846E+01  0.18992478992E+02  0.51100000000E-03 0.  1.
        -12    1    3    3    0    0  0.13678477194E+02 -0.67308307480E+00  0.10362483539E+02  0.17173667176E+02  0.00000000000E+00 0.  1.
</event>
<event>
 7    1  0.5972636E-013  0.5052887E+02  0.7816164E-02  0.1300439E+00
        -11   -1    0    0    0    0  0.00000000000E+00  0.00000000000E+00  0.45593999997E+02  0.45594000000E+02  0.51100000000E-03 0.  1.
         11   -1    0    0    0    0 -0.00000000000E+00 -0.00000000000E+00 -0.45593999997E+02  0.45594000000E+02  0.51100000000E-03 0. -1.
    9900012    2    1    2    0    0  0.17182962945E+02  0.11557682688E+02  0.34990435453E+02  0.50528870424E+02  0.30000032142E+02 0.  0.
         12    1    1    2    0    0 -0.17182962945E+02 -0.11557682688E+02 -0.34990435453E+02  0.40659129576E+02  0.00000000000E+00 0. -1.
         11    1    3    3    0    0  0.48122436342E+01 -0.50196022935E+01  0.30398761600E+01  0.75891332383E+01  0.51100000000E-03 0. -1.
        -11    1    3    3    0    0  0.12101609169E+02  0.12330582803E+02  0.87766360468E+01  0.19378378603E+02  0.51100000000E-03 0.  1.
        -12    1    3    3    0    0  0.26911014203E+00  0.42467021788E+01  0.23173923246E+02  0.23561358583E+02  0.00000000000E+00 0.  1.
</event>
<event>
 7    1  0.5972636E-013  0.5052888E+02  0.7816164E-02  0.1300439E+00
        -11   -1    0    0    0    0  0.00000000000E+00  0.00000000000E+00  0.45593999997E+02  0.45594000000E+02  0.51100000000E-03 0.  1.
         11   -1    0    0    0    0 -0.00000000000E+00 -0.00000000000E+00 -0.45593999997E+02  0.45594000000E+02  0.51100000000E-03 0. -1.
    9900012    2    1    2    0    0  0.21775597056E+02 -0.22174113976E+02  0.26216333105E+02  0.50528879507E+02  0.30000059750E+02 0.  0.
         12    1    1    2    0    0 -0.21775597056E+02  0.22174113976E+02 -0.26216333105E+02  0.40659120493E+02  0.00000000000E+00 0. -1.
         11    1    3    3    0    0  0.13270940375E+02  0.59612128401E+00  0.74045943244E+01  0.15208590874E+02  0.51100000000E-03 0. -1.
        -11    1    3    3    0    0  0.79812228222E+01 -0.25061525521E+02  0.13614811085E+02  0.29616601093E+02  0.51100000000E-03 0.  1.
        -12    1    3    3    0    0  0.52343385944E+00  0.22912902615E+01  0.51969276964E+01  0.57036875396E+01  0.00000000000E+00 0.  1.
</event>
<event>
 7    1  0.7037981E-013  0.5052886E+02  0.7816164E-02  0.1300439E+00
        -11   -1    0    0    0    0  0.00000000000E+00  0.00000000000E+00  0.45593999997E+02  0.45594000000E+02  0.51100000000E-03 0.  1.
         11   -1    0    0    0    0 -0.00000000000E+00 -0.00000000000E+00 -0.45593999997E+02  0.45594000000E+02  0.51100000000E-03 0. -1.
    9900012    2    1    2    0    0  0.13373332533E+02  0.36387735573E+02 -0.12257729708E+02  0.50528864978E+02  0.30000015587E+02 0.  0.
         12    1    1    2    0    0 -0.13373332533E+02 -0.36387735573E+02  0.12257729708E+02  0.40659135022E+02  0.00000000000E+00 0. -1.
         11    1    3    3    0    0  0.45945668198E+01 -0.76155124353E+00  0.80058803802E-01  0.46579409862E+01  0.51100000000E-03 0. -1.
        -11    1    3    3    0    0  0.14043849188E+00  0.17568362905E+02 -0.16461121371E+02  0.24075622841E+02  0.51100000000E-03 0.  1.
        -12    1    3    3    0    0  0.86383272209E+01  0.19580923911E+02  0.41233328586E+01  0.21795301151E+02  0.00000000000E+00 0.  1.
</event>
<event>
 7    1  0.5972636E-013  0.5052886E+02  0.7816164E-02  0.1300439E+00
        -11   -1    0    0    0    0  0.00000000000E+00  0.00000000000E+00  0.45593999997E+02  0.45594000000E+02  0.51100000000E-03 0. -1.
         11   -1    0    0    0    0 -0.00000000000E+00 -0.00000000000E+00 -0.45593999997E+02  0.45594000000E+02  0.51100000000E-03 0.  1.
    9900012    2    1    2    0    0 -0.90184920539E+01  0.34162625253E+02 -0.20118330941E+02  0.50528863229E+02  0.30000010270E+02 0.  0.
         12    1    1    2    0    0  0.90184920539E+01 -0.34162625253E+02  0.20118330941E+02  0.40659136771E+02  0.00000000000E+00 0. -1.
         11    1    3    3    0    0 -0.58209111234E+01  0.16796670135E+02 -0.73536696795E+01  0.19237660771E+02  0.51100000000E-03 0. -1.
        -11    1    3    3    0    0  0.77689011568E+01 -0.24438696297E+00 -0.26590079157E+01  0.82149786080E+01  0.51100000000E-03 0.  1.
        -12    1    3    3    0    0 -0.10966482087E+02  0.17610342081E+02 -0.10105653346E+02  0.23076223849E+02  0.00000000000E+00 0.  1.
</event>
<event>
 7    1  0.5972636E-013  0.5052886E+02  0.7816164E-02  0.1300439E+00
        -11   -1    0    0    0    0  0.00000000000E+00  0.00000000000E+00  0.45593999997E+02  0.45594000000E+02  0.51100000000E-03 0.  1.
         11   -1    0    0    0    0 -0.00000000000E+00 -0.00000000000E+00 -0.45593999997E+02  0.45594000000E+02  0.51100000000E-03 0. -1.
    9900012    2    1    2    0    0 -0.99694970615E+01 -0.31532688986E+02  0.23652999646E+02  0.50528859101E+02  0.29999997725E+02 0.  0.
         12    1    1    2    0    0  0.99694970615E+01  0.31532688986E+02 -0.23652999646E+02  0.40659140899E+02  0.00000000000E+00 0. -1.
         11    1    3    3    0    0  0.69740761022E+01 -0.18177052731E+02  0.57969907245E+01  0.20313741290E+02  0.51100000000E-03 0. -1.
        -11    1    3    3    0    0 -0.28158513224E+01 -0.10253986900E+01  0.89837317248E+01  0.94703694283E+01  0.51100000000E-03 0.  1.
         12    1    3    3    0    0 -0.14127721841E+02 -0.12330237565E+02  0.88722771972E+01  0.20744748383E+02  0.00000000000E+00 0. -1.
</event>
<event>
 7    1  0.5972636E-013  0.5052890E+02  0.7816164E-02  0.1300439E+00
        -11   -1    0    0    0    0  0.00000000000E+00  0.00000000000E+00  0.45593999997E+02  0.45594000000E+02  0.51100000000E-03 0.  1.
         11   -1    0    0    0    0 -0.00000000000E+00 -0.00000000000E+00 -0.45593999997E+02  0.45594000000E+02  0.51100000000E-03 0. -1.
    9900012    2    1    2    0    0  0.29027167543E+02  0.27072344310E+02 -0.88133104438E+01  0.50528896186E+02  0.30000110446E+02 0.  0.
         12    1    1    2    0    0 -0.29027167543E+02 -0.27072344310E+02  0.88133104438E+01  0.40659103814E+02  0.00000000000E+00 0. -1.
         11    1    3    3    0    0  0.50489805463E+01  0.81635463267E+01 -0.13155500468E+02  0.16285050998E+02  0.51100000000E-03 0. -1.
        -11    1    3    3    0    0  0.70850577592E+01  0.14457610375E+02 -0.52466712243E+00  0.16108873861E+02  0.51100000000E-03 0.  1.
         12    1    3    3    0    0  0.16893129237E+02  0.44511876083E+01  0.48668571465E+01  0.18134971327E+02  0.00000000000E+00 0. -1.
</event>
<event>
 7    1  0.5972636E-013  0.5052886E+02  0.7816164E-02  0.1300439E+00
        -11   -1    0    0    0    0  0.00000000000E+00  0.00000000000E+00  0.45593999997E+02  0.45594000000E+02  0.51100000000E-03 0. -1.
         11   -1    0    0    0    0 -0.00000000000E+00 -0.00000000000E+00 -0.45593999997E+02  0.45594000000E+02  0.51100000000E-03 0.  1.
    9900012    2    1    2    0    0  0.36348642377E+02 -0.13624177432E+02 -0.12096429910E+02  0.50528860438E+02  0.30000001787E+02 0.  0.
         12    1    1    2    0    0 -0.36348642377E+02  0.13624177432E+02  0.12096429910E+02  0.40659139562E+02  0.00000000000E+00 0. -1.
         11    1    3    3    0    0  0.84415652245E+01 -0.75127655193E+01  0.13049952460E+01  0.11375617875E+02  0.51100000000E-03 0. -1.
        -11    1    3    3    0    0  0.22234659598E+02  0.63057856378E+01 -0.77215639540E+01  0.24367305352E+02  0.51100000000E-03 0.  1.
        -12    1    3    3    0    0  0.56724175541E+01 -0.12417197551E+02 -0.56798612020E+01  0.14785937211E+02  0.00000000000E+00 0.  1.
</event>
<event>
 7    1  0.5972636E-013  0.5052887E+02  0.7816164E-02  0.1300439E+00
        -11   -1    0    0    0    0  0.00000000000E+00  0.00000000000E+00  0.45593999997E+02  0.45594000000E+02  0.51100000000E-03 0. -1.
         11   -1    0    0    0    0 -0.00000000000E+00 -0.00000000000E+00 -0.45593999997E+02  0.45594000000E+02  0.51100000000E-03 0.  1.
    9900012    2    1    2    0    0 -0.19135576489E+02 -0.12125852917E+02 -0.33763272912E+02  0.50528865795E+02  0.30000018071E+02 0.  0.
         12    1    1    2    0    0  0.19135576489E+02  0.12125852917E+02  0.33763272912E+02  0.40659134205E+02  0.00000000000E+00 0. -1.
         11    1    3    3    0    0 -0.12303421000E+02  0.14914843225E+01 -0.41827133069E+01  0.13080282285E+02  0.51100000000E-03 0. -1.
        -11    1    3    3    0    0 -0.28893596970E+00 -0.15588912161E+02 -0.24028026494E+02  0.28643388833E+02  0.51100000000E-03 0.  1.
        -12    1    3    3    0    0 -0.65432195201E+01  0.19715749216E+01 -0.55525331109E+01  0.88051946774E+01  0.00000000000E+00 0.  1.
</event>
<event>
 7    1  0.5972636E-013  0.5052881E+02  0.7816164E-02  0.1300439E+00
        -11   -1    0    0    0    0  0.00000000000E+00  0.00000000000E+00  0.45593999997E+02  0.45594000000E+02  0.51100000000E-03 0. -1.
         11   -1    0    0    0    0 -0.00000000000E+00 -0.00000000000E+00 -0.45593999997E+02  0.45594000000E+02  0.51100000000E-03 0.  1.
    9900012    2    1    2    0    0 -0.32277300154E+02  0.15049943566E+02 -0.19617471514E+02  0.50528805528E+02  0.29999834882E+02 0.  0.
         12    1    1    2    0    0  0.32277300154E+02 -0.15049943566E+02  0.19617471514E+02  0.40659194472E+02  0.00000000000E+00 0. -1.
         11    1    3    3    0    0 -0.34248377386E+02  0.10696495202E+02 -0.19620882964E+02  0.40894320042E+02  0.51100000000E-03 0. -1.
        -11    1    3    3    0    0 -0.27716382727E+01  0.29489098542E+01 -0.17188923809E+01  0.43968897326E+01  0.51100000000E-03 0.  1.
         12    1    3    3    0    0  0.47427155049E+01  0.14045385094E+01  0.17223038309E+01  0.52375957529E+01  0.00000000000E+00 0. -1.
</event>
<event>
 7    1  0.5972636E-013  0.5052886E+02  0.7816164E-02  0.1300439E+00
        -11   -1    0    0    0    0  0.00000000000E+00  0.00000000000E+00  0.45593999997E+02  0.45594000000E+02  0.51100000000E-03 0.  1.
         11   -1    0    0    0    0 -0.00000000000E+00 -0.00000000000E+00 -0.45593999997E+02  0.45594000000E+02  0.51100000000E-03 0. -1.
    9900012    2    1    2    0    0  0.17330096354E+02  0.57003582030E+01  0.36336472206E+02  0.50528861597E+02  0.30000005310E+02 0.  0.
         12    1    1    2    0    0 -0.17330096354E+02 -0.57003582030E+01 -0.36336472206E+02  0.40659138403E+02  0.00000000000E+00 0. -1.
         11    1    3    3    0    0 -0.25389064559E+01 -0.77068219963E+01  0.12805668234E+02  0.15160022773E+02  0.51100000000E-03 0. -1.
        -11    1    3    3    0    0  0.12054857383E+02  0.13344561946E+02  0.12709973743E+02  0.22021361286E+02  0.51100000000E-03 0.  1.
        -12    1    3    3    0    0  0.78141454271E+01  0.62618252857E-01  0.10820830229E+02  0.13347477539E+02  0.00000000000E+00 0.  1.
</event>
<event>
 7    1  0.5972636E-013  0.5052888E+02  0.7816164E-02  0.1300439E+00
        -11   -1    0    0    0    0  0.00000000000E+00  0.00000000000E+00  0.45593999997E+02  0.45594000000E+02  0.51100000000E-03 0.  1.
         11   -1    0    0    0    0 -0.00000000000E+00 -0.00000000000E+00 -0.45593999997E+02  0.45594000000E+02  0.51100000000E-03 0. -1.
    9900012    2    1    2    0    0 -0.40356250350E+02  0.30981112187E+01 -0.38651040447E+01  0.50528877226E+02  0.30000052817E+02 0.  0.
         12    1    1    2    0    0  0.40356250350E+02 -0.30981112187E+01  0.38651040447E+01  0.40659122774E+02  0.00000000000E+00 0. -1.
         11    1    3    3    0    0 -0.23902625761E+01 -0.46241727819E+01  0.22868771452E+00  0.52104344762E+01  0.51100000000E-03 0. -1.
        -11    1    3    3    0    0 -0.33965337541E+02  0.36432220808E+01 -0.11428333497E+02  0.36021160839E+02  0.51100000000E-03 0.  1.
        -12    1    3    3    0    0 -0.40006502331E+01  0.40790619198E+01  0.73345417376E+01  0.92972819111E+01  0.00000000000E+00 0.  1.
</event>
<event>
 7    1  0.5972636E-013  0.5052886E+02  0.7816164E-02  0.1300439E+00
        -11   -1    0    0    0    0  0.00000000000E+00  0.00000000000E+00  0.45593999997E+02  0.45594000000E+02  0.51100000000E-03 0.  1.
         11   -1    0    0    0    0 -0.00000000000E+00 -0.00000000000E+00 -0.45593999997E+02  0.45594000000E+02  0.51100000000E-03 0. -1.
    9900012    2    1    2    0    0  0.10121205324E+02  0.14458149941E+02  0.36629068711E+02  0.50528861156E+02  0.30000003969E+02 0.  0.
         12    1    1    2    0    0 -0.10121205324E+02 -0.14458149941E+02 -0.36629068711E+02  0.40659138844E+02  0.00000000000E+00 0. -1.
         11    1    3    3    0    0  0.91415106880E+01  0.12311669528E+02  0.32502842867E+01  0.15675100397E+02  0.51100000000E-03 0. -1.
        -11    1    3    3    0    0 -0.22633694532E+01 -0.25149935811E+01  0.59630256774E+01  0.68560709947E+01  0.51100000000E-03 0.  1.
         12    1    3    3    0    0  0.32430640889E+01  0.46614739933E+01  0.27415758747E+02  0.27997689765E+02  0.00000000000E+00 0. -1.
</event>
<event>
 7    1  0.5972636E-013  0.5052887E+02  0.7816164E-02  0.1300439E+00
        -11   -1    0    0    0    0  0.00000000000E+00  0.00000000000E+00  0.45593999997E+02  0.45594000000E+02  0.51100000000E-03 0.  1.
         11   -1    0    0    0    0 -0.00000000000E+00 -0.00000000000E+00 -0.45593999997E+02  0.45594000000E+02  0.51100000000E-03 0. -1.
    9900012    2    1    2    0    0 -0.25431182579E+02 -0.52173886206E+01  0.31292156237E+02  0.50528865314E+02  0.30000016609E+02 0.  0.
         12    1    1    2    0    0  0.25431182579E+02  0.52173886206E+01 -0.31292156237E+02  0.40659134686E+02  0.00000000000E+00 0. -1.
         11    1    3    3    0    0 -0.71664671917E+01 -0.10935285070E+02  0.94881878302E+00  0.13108736358E+02  0.51100000000E-03 0. -1.
        -11    1    3    3    0    0 -0.91776459805E+01 -0.19684354314E+01  0.17834965202E+02  0.20154153611E+02  0.51100000000E-03 0.  1.
         12    1    3    3    0    0 -0.90870694071E+01  0.76863318804E+01  0.12508372253E+02  0.17265975345E+02  0.00000000000E+00 0. -1.
</event>
<event>
 7    1  0.6540914E-013  0.5052885E+02  0.7816164E-02  0.1300439E+00
        -11   -1    0    0    0    0  0.00000000000E+00  0.00000000000E+00  0.45593999997E+02  0.45594000000E+02  0.51100000000E-03 0.  1.
         11   -1    0    0    0    0 -0.00000000000E+00 -0.00000000000E+00 -0.45593999997E+02  0.45594000000E+02  0.51100000000E-03 0. -1.
    9900012    2    1    2    0    0 -0.34800365480E+02  0.20043813477E+02  0.63518717380E+01  0.50528853787E+02  0.29999981570E+02 0.  0.
         12    1    1    2    0    0  0.34800365480E+02 -0.20043813477E+02 -0.63518717380E+01  0.40659146213E+02  0.00000000000E+00 0. -1.
         11    1    3    3    0    0  0.23543039815E+01  0.23937263869E+01 -0.15030928685E+01  0.36785814773E+01  0.51100000000E-03 0. -1.
        -11    1    3    3    0    0 -0.18879679378E+02  0.92289078913E+01  0.14644247265E+02  0.25613844157E+02  0.51100000000E-03 0.  1.
        -12    1    3    3    0    0 -0.18274990083E+02  0.84211791992E+01 -0.67892826585E+01  0.21236428152E+02  0.00000000000E+00 0.  1.
</event>
<event>
 7    1  0.5972636E-013  0.5052886E+02  0.7816164E-02  0.1300439E+00
        -11   -1    0    0    0    0  0.00000000000E+00  0.00000000000E+00  0.45593999997E+02  0.45594000000E+02  0.51100000000E-03 0.  1.
         11   -1    0    0    0    0 -0.00000000000E+00 -0.00000000000E+00 -0.45593999997E+02  0.45594000000E+02  0.51100000000E-03 0. -1.
    9900012    2    1    2    0    0 -0.30151271492E+02 -0.21906660187E+02 -0.16253152855E+02  0.50528856984E+02  0.29999991287E+02 0.  0.
         12    1    1    2    0    0  0.30151271492E+02  0.21906660187E+02  0.16253152855E+02  0.40659143016E+02  0.00000000000E+00 0. -1.
         11    1    3    3    0    0 -0.53296205781E+01 -0.20424955401E+02 -0.90432609542E+01  0.22964412198E+02  0.51100000000E-03 0. -1.
        -11    1    3    3    0    0 -0.19165335998E+02 -0.51669256078E+01 -0.51641029599E+01  0.20510367714E+02  0.51100000000E-03 0.  1.
        -12    1    3    3    0    0 -0.56563149163E+01  0.36852208223E+01 -0.20457889406E+01  0.70540770715E+01  0.00000000000E+00 0.  1.
</event>
<event>
 7    1  0.5972636E-013  0.5052886E+02  0.7816164E-02  0.1300439E+00
        -11   -1    0    0    0    0  0.00000000000E+00  0.00000000000E+00  0.45593999997E+02  0.45594000000E+02  0.51100000000E-03 0. -1.
         11   -1    0    0    0    0 -0.00000000000E+00 -0.00000000000E+00 -0.45593999997E+02  0.45594000000E+02  0.51100000000E-03 0.  1.
    9900012    2    1    2    0    0  0.27370817097E+02 -0.18182577569E+02 -0.23945733559E+02  0.50528856978E+02  0.29999991269E+02 0.  0.
         12    1    1    2    0    0 -0.27370817097E+02  0.18182577569E+02  0.23945733559E+02  0.40659143022E+02  0.00000000000E+00 0. -1.
         11    1    3    3    0    0  0.24403250320E+02 -0.14153748698E+00 -0.14163445931E+02  0.28215985894E+02  0.51100000000E-03 0. -1.
        -11    1    3    3    0    0  0.57188146164E+01 -0.10323811291E+02 -0.49256162830E+01  0.12788573659E+02  0.51100000000E-03 0.  1.
         12    1    3    3    0    0 -0.27512478395E+01 -0.77172287910E+01 -0.48566713458E+01  0.95242974254E+01  0.00000000000E+00 0. -1.
</event>
<event>
 7    1  0.5972636E-013  0.5052886E+02  0.7816164E-02  0.1300439E+00
        -11   -1    0    0    0    0  0.00000000000E+00  0.00000000000E+00  0.45593999997E+02  0.45594000000E+02  0.51100000000E-03 0.  1.
         11   -1    0    0    0    0 -0.00000000000E+00 -0.00000000000E+00 -0.45593999997E+02  0.45594000000E+02  0.51100000000E-03 0. -1.
    9900012    2    1    2    0    0 -0.91509158139E+01 -0.19136513307E+02  0.34687465445E+02  0.50528860058E+02  0.30000000633E+02 0.  0.
         12    1    1    2    0    0  0.91509158139E+01  0.19136513307E+02 -0.34687465445E+02  0.40659139942E+02  0.00000000000E+00 0. -1.
         11    1    3    3    0    0  0.54569192363E+01 -0.14916179204E+01 -0.25958368683E+01  0.62242478164E+01  0.51100000000E-03 0. -1.
        -11    1    3    3    0    0 -0.14427594088E+02 -0.13589773145E+02  0.32019823993E+02  0.37657755298E+02  0.51100000000E-03 0.  1.
         12    1    3    3    0    0 -0.18024096185E+00 -0.40551222411E+01  0.52634783209E+01  0.66468569437E+01  0.00000000000E+00 0. -1.
</event>
<event>
 7    1  0.5972636E-013  0.5052887E+02  0.7816164E-02  0.1300439E+00
        -11   -1    0    0    0    0  0.00000000000E+00  0.00000000000E+00  0.45593999997E+02  0.45594000000E+02  0.51100000000E-03 0.  1.
         11   -1    0    0    0    0 -0.00000000000E+00 -0.00000000000E+00 -0.45593999997E+02  0.45594000000E+02  0.51100000000E-03 0. -1.
    9900012    2    1    2    0    0  0.11642712808E+02  0.27680700995E+02  0.27411505414E+02  0.50528873126E+02  0.30000040354E+02 0.  0.
         12    1    1    2    0    0 -0.11642712808E+02 -0.27680700995E+02 -0.27411505414E+02  0.40659126874E+02  0.00000000000E+00 0. -1.
         11    1    3    3    0    0  0.17657115197E+02  0.93621900850E+01  0.12193359690E+02  0.23411585616E+02  0.51100000000E-03 0. -1.
        -11    1    3    3    0    0 -0.41194204757E+01  0.16896622179E+02  0.73160633087E+01  0.18867703854E+02  0.51100000000E-03 0.  1.
        -12    1    3    3    0    0 -0.18949819126E+01  0.14218887304E+01  0.79020824150E+01  0.82495836564E+01  0.00000000000E+00 0.  1.
</event>
<event>
 7    1  0.5972636E-013  0.5052886E+02  0.7816164E-02  0.1300439E+00
        -11   -1    0    0    0    0  0.00000000000E+00  0.00000000000E+00  0.45593999997E+02  0.45594000000E+02  0.51100000000E-03 0. -1.
         11   -1    0    0    0    0 -0.00000000000E+00 -0.00000000000E+00 -0.45593999997E+02  0.45594000000E+02  0.51100000000E-03 0.  1.
    9900012    2    1    2    0    0  0.17311835649E+01  0.36660496744E+02 -0.17497903125E+02  0.50528860415E+02  0.30000001717E+02 0.  0.
         12    1    1    2    0    0 -0.17311835649E+01 -0.36660496744E+02  0.17497903125E+02  0.40659139585E+02  0.00000000000E+00 0. -1.
         11    1    3    3    0    0  0.45749521716E+01  0.40775354168E+01  0.66794745548E+00  0.61646278487E+01  0.51100000000E-03 0. -1.
        -11    1    3    3    0    0 -0.46138228137E+01  0.35163731014E+02 -0.11983592139E+02  0.37435034668E+02  0.51100000000E-03 0.  1.
        -12    1    3    3    0    0  0.17700542070E+01 -0.25807696872E+01 -0.61822584410E+01  0.69291978977E+01  0.00000000000E+00 0.  1.
</event>
<event>
 7    1  0.5972636E-013  0.5052886E+02  0.7816164E-02  0.1300439E+00
        -11   -1    0    0    0    0  0.00000000000E+00  0.00000000000E+00  0.45593999997E+02  0.45594000000E+02  0.51100000000E-03 0. -1.
         11   -1    0    0    0    0 -0.00000000000E+00 -0.00000000000E+00 -0.45593999997E+02  0.45594000000E+02  0.51100000000E-03 0.  1.
    9900012    2    1    2    0    0  0.33463363854E+02 -0.23085016331E+02 -0.67145899988E+00  0.50528861339E+02  0.30000004528E+02 0.  0.
         12    1    1    2    0    0 -0.33463363854E+02  0.23085016331E+02  0.67145899988E+00  0.40659138661E+02  0.00000000000E+00 0. -1.
         11    1    3    3    0    0  0.30813766994E+02 -0.13997262067E+02  0.10819552195E+02  0.35531314241E+02  0.51100000000E-03 0. -1.
        -11    1    3    3    0    0  0.24732701332E+01 -0.79128976233E+01 -0.89923521671E+01  0.12230838553E+02  0.51100000000E-03 0.  1.
         12    1    3    3    0    0  0.17632672649E+00 -0.11748566411E+01 -0.24986590274E+01  0.27667085457E+01  0.00000000000E+00 0. -1.
</event>
<event>
 7    1  0.5972636E-013  0.5052885E+02  0.7816164E-02  0.1300439E+00
        -11   -1    0    0    0    0  0.00000000000E+00  0.00000000000E+00  0.45593999997E+02  0.45594000000E+02  0.51100000000E-03 0.  1.
         11   -1    0    0    0    0 -0.00000000000E+00 -0.00000000000E+00 -0.45593999997E+02  0.45594000000E+02  0.51100000000E-03 0. -1.
    9900012    2    1    2    0    0 -0.76234088581E+01  0.20241304115E+02  0.34428762018E+02  0.50528850858E+02  0.29999972668E+02 0.  0.
         12    1    1    2    0    0  0.76234088581E+01 -0.20241304115E+02 -0.34428762018E+02  0.40659149142E+02  0.00000000000E+00 0. -1.
         11    1    3    3    0    0  0.44641291873E+01  0.50525944572E+01 -0.16780315453E+01  0.69478737955E+01  0.51100000000E-03 0. -1.
        -11    1    3    3    0    0 -0.16007917691E+01  0.11492501427E+02  0.26335908540E+02  0.28778815164E+02  0.51100000000E-03 0.  1.
        -12    1    3    3    0    0 -0.10486746276E+02  0.36962082313E+01  0.97708850228E+01  0.14802161899E+02  0.00000000000E+00 0.  1.
</event>
<event>
 7    1  0.5972636E-013  0.5052887E+02  0.7816164E-02  0.1300439E+00
        -11   -1    0    0    0    0  0.00000000000E+00  0.00000000000E+00  0.45593999997E+02  0.45594000000E+02  0.51100000000E-03 0. -1.
         11   -1    0    0    0    0 -0.00000000000E+00 -0.00000000000E+00 -0.45593999997E+02  0.45594000000E+02  0.51100000000E-03 0.  1.
    9900012    2    1    2    0    0 -0.12259752225E+02  0.32789906977E+02  0.20680548612E+02  0.50528872918E+02  0.30000039720E+02 0.  0.
         12    1    1    2    0    0  0.12259752225E+02 -0.32789906977E+02 -0.20680548612E+02  0.40659127082E+02  0.00000000000E+00 0. -1.
         11    1    3    3    0    0 -0.14732220304E+02  0.14489837242E+02  0.24084003521E+00  0.20665229313E+02  0.51100000000E-03 0. -1.
        -11    1    3    3    0    0  0.69074923968E+00  0.17279679833E+02  0.21468261037E+02  0.27567203373E+02  0.51100000000E-03 0.  1.
         12    1    3    3    0    0  0.17817188387E+01  0.10203899032E+01 -0.10285524596E+01  0.22964402315E+01  0.00000000000E+00 0. -1.
</event>
<event>
 7    1  0.5972636E-013  0.5052888E+02  0.7816164E-02  0.1300439E+00
        -11   -1    0    0    0    0  0.00000000000E+00  0.00000000000E+00  0.45593999997E+02  0.45594000000E+02  0.51100000000E-03 0.  1.
         11   -1    0    0    0    0 -0.00000000000E+00 -0.00000000000E+00 -0.45593999997E+02  0.45594000000E+02  0.51100000000E-03 0. -1.
    9900012    2    1    2    0    0 -0.20608511943E+02  0.76243226985E+01  0.34209985371E+02  0.50528878512E+02  0.30000056724E+02 0.  0.
         12    1    1    2    0    0  0.20608511943E+02 -0.76243226985E+01 -0.34209985371E+02  0.40659121488E+02  0.00000000000E+00 0. -1.
         11    1    3    3    0    0 -0.16186103270E+02 -0.21943429209E+01  0.80655487375E+01  0.18216974409E+02  0.51100000000E-03 0. -1.
        -11    1    3    3    0    0 -0.16364355297E+01  0.13924187196E+02  0.19663529249E+02  0.24149850788E+02  0.51100000000E-03 0.  1.
         12    1    3    3    0    0 -0.27859731424E+01 -0.41055215769E+01  0.64809073851E+01  0.81620533141E+01  0.00000000000E+00 0. -1.
</event>
<event>
 7    1  0.5972636E-013  0.5052886E+02  0.7816164E-02  0.1300439E+00
        -11   -1    0    0    0    0  0.00000000000E+00  0.00000000000E+00  0.45593999997E+02  0.45594000000E+02  0.51100000000E-03 0. -1.
         11   -1    0    0    0    0 -0.00000000000E+00 -0.00000000000E+00 -0.45593999997E+02  0.45594000000E+02  0.51100000000E-03 0.  1.
    9900012    2    1    2    0    0  0.34256159437E+02  0.17269927106E+02 -0.13469629116E+02  0.50528858959E+02  0.29999997292E+02 0.  0.
         12    1    1    2    0    0 -0.34256159437E+02 -0.17269927106E+02  0.13469629116E+02  0.40659141041E+02  0.00000000000E+00 0. -1.
         11    1    3    3    0    0  0.21091400080E+02  0.15967735082E+02 -0.20815106804E+02  0.33661318936E+02  0.51100000000E-03 0.  1.
        -11    1    3    3    0    0  0.59938303296E+01 -0.31166827741E+01  0.34912694465E+01  0.76045168251E+01  0.51100000000E-03 0. -1.
        -12    1    3    3    0    0  0.71709290275E+01  0.44188747986E+01  0.38542082413E+01  0.92630231982E+01  0.00000000000E+00 0.  1.
</event>
<event>
 7    1  0.5972636E-013  0.5052890E+02  0.7816164E-02  0.1300439E+00
        -11   -1    0    0    0    0  0.00000000000E+00  0.00000000000E+00  0.45593999997E+02  0.45594000000E+02  0.51100000000E-03 0.  1.
         11   -1    0    0    0    0 -0.00000000000E+00 -0.00000000000E+00 -0.45593999997E+02  0.45594000000E+02  0.51100000000E-03 0. -1.
    9900012    2    1    2    0    0 -0.51430703248E+01  0.21502501369E+01  0.40275145159E+02  0.50528904270E+02  0.30000135020E+02 0.  0.
         12    1    1    2    0    0  0.51430703248E+01 -0.21502501369E+01 -0.40275145159E+02  0.40659095730E+02  0.00000000000E+00 0. -1.
         11    1    3    3    0    0 -0.27808246064E+01  0.69247179262E+01  0.56390879838E+01  0.93532891220E+01  0.51100000000E-03 0. -1.
        -11    1    3    3    0    0 -0.51858946318E+01 -0.10036399334E+02  0.33149636729E+02  0.35021725118E+02  0.51100000000E-03 0.  1.
        -12    1    3    3    0    0  0.28236489134E+01  0.52619315443E+01  0.14864204457E+01  0.61538900302E+01  0.00000000000E+00 0.  1.
</event>
<event>
 7    1  0.5972636E-013  0.5052885E+02  0.7816164E-02  0.1300439E+00
        -11   -1    0    0    0    0  0.00000000000E+00  0.00000000000E+00  0.45593999997E+02  0.45594000000E+02  0.51100000000E-03 0. -1.
         11   -1    0    0    0    0 -0.00000000000E+00 -0.00000000000E+00 -0.45593999997E+02  0.45594000000E+02  0.51100000000E-03 0.  1.
    9900012    2    1    2    0    0 -0.22372718458E+02 -0.33220905650E+02 -0.69999754217E+01  0.50528846549E+02  0.29999959572E+02 0.  0.
         12    1    1    2    0    0  0.22372718458E+02  0.33220905650E+02  0.69999754217E+01  0.40659153451E+02  0.00000000000E+00 0. -1.
         11    1    3    3    0    0 -0.14194062493E+02 -0.11884802528E+02  0.10168748637E+02  0.21121633230E+02  0.51100000000E-03 0. -1.
        -11    1    3    3    0    0 -0.59941447554E+01 -0.14489076505E+02 -0.15459889160E+02  0.22019792970E+02  0.51100000000E-03 0.  1.
         12    1    3    3    0    0 -0.21845112091E+01 -0.68470266163E+01 -0.17088348989E+01  0.73874203494E+01  0.00000000000E+00 0. -1.
</event>
<event>
 7    1  0.5972636E-013  0.5052884E+02  0.7816164E-02  0.1300439E+00
        -11   -1    0    0    0    0  0.00000000000E+00  0.00000000000E+00  0.45593999997E+02  0.45594000000E+02  0.51100000000E-03 0. -1.
         11   -1    0    0    0    0 -0.00000000000E+00 -0.00000000000E+00 -0.45593999997E+02  0.45594000000E+02  0.51100000000E-03 0.  1.
    9900012    2    1    2    0    0 -0.15838086233E+02  0.23872560683E+02 -0.28851748481E+02  0.50528837201E+02  0.29999931157E+02 0.  0.
         12    1    1    2    0    0  0.15838086233E+02 -0.23872560683E+02  0.28851748481E+02  0.40659162799E+02  0.00000000000E+00 0. -1.
         11    1    3    3    0    0  0.15237852538E+01  0.23331630940E+02 -0.13295529059E+02  0.26897174890E+02  0.51100000000E-03 0. -1.
        -11    1    3    3    0    0 -0.10379167949E+02  0.21767061117E+01 -0.88418099633E+01  0.13807345165E+02  0.51100000000E-03 0.  1.
         12    1    3    3    0    0 -0.69827035375E+01 -0.16357763692E+01 -0.67144094587E+01  0.98243171468E+01  0.00000000000E+00 0. -1.
</event>
<event>
 7    1  0.5972636E-013  0.5052884E+02  0.7816164E-02  0.1300439E+00
        -11   -1    0    0    0    0  0.00000000000E+00  0.00000000000E+00  0.45593999997E+02  0.45594000000E+02  0.51100000000E-03 0.  1.
         11   -1    0    0    0    0 -0.00000000000E+00 -0.00000000000E+00 -0.45593999997E+02  0.45594000000E+02  0.51100000000E-03 0. -1.
    9900012    2    1    2    0    0 -0.65752476297E+01 -0.14475355471E+02  0.37421885120E+02  0.50528840105E+02  0.29999939982E+02 0.  0.
         12    1    1    2    0    0  0.65752476297E+01  0.14475355471E+02 -0.37421885120E+02  0.40659159895E+02  0.00000000000E+00 0. -1.
         11    1    3    3    0    0  0.59700678862E+01  0.47635670562E+01  0.31943846353E+01  0.82787302845E+01  0.51100000000E-03 0. -1.
        -11    1    3    3    0    0 -0.12468880899E+02 -0.11303683061E+02  0.23629947496E+02  0.29010699071E+02  0.51100000000E-03 0.  1.
         12    1    3    3    0    0 -0.76434616383E-01 -0.79352394669E+01  0.10597552989E+02  0.13239410750E+02  0.00000000000E+00 0. -1.
</event>
<event>
 7    1  0.5972636E-013  0.5052885E+02  0.7816164E-02  0.1300439E+00
        -11   -1    0    0    0    0  0.00000000000E+00  0.00000000000E+00  0.45593999997E+02  0.45594000000E+02  0.51100000000E-03 0. -1.
         11   -1    0    0    0    0 -0.00000000000E+00 -0.00000000000E+00 -0.45593999997E+02  0.45594000000E+02  0.51100000000E-03 0.  1.
    9900012    2    1    2    0    0  0.28815561061E+02 -0.25385980658E+02 -0.13355978692E+02  0.50528846786E+02  0.29999960290E+02 0.  0.
         12    1    1    2    0    0 -0.28815561061E+02  0.25385980658E+02  0.13355978692E+02  0.40659153214E+02  0.00000000000E+00 0. -1.
         11    1    3    3    0    0  0.81160061113E+01  0.15704865174E+01 -0.23587301893E+01  0.85964871585E+01  0.51100000000E-03 0. -1.
        -11    1    3    3    0    0 -0.32368768886E+00 -0.15958336443E+02 -0.84759890538E+01  0.18072511349E+02  0.51100000000E-03 0.  1.
        -12    1    3    3    0    0  0.21023242639E+02 -0.10998130733E+02 -0.25212594491E+01  0.23859848278E+02  0.00000000000E+00 0.  1.
</event>
<event>
 7    1  0.5972636E-013  0.5052887E+02  0.7816164E-02  0.1300439E+00
        -11   -1    0    0    0    0  0.00000000000E+00  0.00000000000E+00  0.45593999997E+02  0.45594000000E+02  0.51100000000E-03 0.  1.
         11   -1    0    0    0    0 -0.00000000000E+00 -0.00000000000E+00 -0.45593999997E+02  0.45594000000E+02  0.51100000000E-03 0. -1.
    9900012    2    1    2    0    0 -0.44535567121E+01  0.18656670687E+02  0.35850511171E+02  0.50528872123E+02  0.30000037304E+02 0.  0.
         12    1    1    2    0    0  0.44535567121E+01 -0.18656670687E+02 -0.35850511171E+02  0.40659127877E+02  0.00000000000E+00 0. -1.
         11    1    3    3    0    0 -0.15467679188E+01  0.50328839980E+01  0.28209360847E+01  0.59732815928E+01  0.51100000000E-03 0. -1.
        -11    1    3    3    0    0  0.13256621799E+00 -0.85527188130E+00  0.29280564608E+02  0.29293352963E+02  0.51100000000E-03 0.  1.
        -12    1    3    3    0    0 -0.30393550112E+01  0.14479058570E+02  0.37490104785E+01  0.15262237567E+02  0.00000000000E+00 0.  1.
</event>
<event>
 7    1  0.5972636E-013  0.5052885E+02  0.7816164E-02  0.1300439E+00
        -11   -1    0    0    0    0  0.00000000000E+00  0.00000000000E+00  0.45593999997E+02  0.45594000000E+02  0.51100000000E-03 0.  1.
         11   -1    0    0    0    0 -0.00000000000E+00 -0.00000000000E+00 -0.45593999997E+02  0.45594000000E+02  0.51100000000E-03 0. -1.
    9900012    2    1    2    0    0 -0.39463155578E+02  0.67506395251E+01  0.70890306871E+01  0.50528854186E+02  0.29999982785E+02 0.  0.
         12    1    1    2    0    0  0.39463155578E+02 -0.67506395251E+01 -0.70890306871E+01  0.40659145814E+02  0.00000000000E+00 0. -1.
         11    1    3    3    0    0 -0.27305486115E+02 -0.55333670034E+01  0.11085870567E+01  0.27882551675E+02  0.51100000000E-03 0.  1.
        -11    1    3    3    0    0  0.26580154698E+01  0.41821948249E+01  0.12762999958E+01  0.51171028650E+01  0.51100000000E-03 0. -1.
         12    1    3    3    0    0 -0.14815684933E+02  0.81018117037E+01  0.47041436345E+01  0.17529199647E+02  0.00000000000E+00 0. -1.
</event>
<event>
 7    1  0.5972636E-013  0.5052885E+02  0.7816164E-02  0.1300439E+00
        -11   -1    0    0    0    0  0.00000000000E+00  0.00000000000E+00  0.45593999997E+02  0.45594000000E+02  0.51100000000E-03 0. -1.
         11   -1    0    0    0    0 -0.00000000000E+00 -0.00000000000E+00 -0.45593999997E+02  0.45594000000E+02  0.51100000000E-03 0.  1.
    9900012    2    1    2    0    0 -0.46715189322E+01  0.36288784540E+02 -0.17733222339E+02  0.50528854079E+02  0.29999982458E+02 0.  0.
         12    1    1    2    0    0  0.46715189322E+01 -0.36288784540E+02  0.17733222339E+02  0.40659145921E+02  0.00000000000E+00 0. -1.
         11    1    3    3    0    0 -0.82302450681E+01  0.11321171733E+02 -0.23480674338E+01  0.14192226190E+02  0.51100000000E-03 0. -1.
        -11    1    3    3    0    0  0.10363659732E+02  0.15851941351E+02 -0.16213134551E+02  0.24931009203E+02  0.51100000000E-03 0.  1.
        -12    1    3    3    0    0 -0.68049335958E+01  0.91156714556E+01  0.82797964557E+00  0.11405618687E+02  0.00000000000E+00 0.  1.
</event>
<event>
 7    1  0.5972636E-013  0.5052886E+02  0.7816164E-02  0.1300439E+00
        -11   -1    0    0    0    0  0.00000000000E+00  0.00000000000E+00  0.45593999997E+02  0.45594000000E+02  0.51100000000E-03 0. -1.
         11   -1    0    0    0    0 -0.00000000000E+00 -0.00000000000E+00 -0.45593999997E+02  0.45594000000E+02  0.51100000000E-03 0.  1.
    9900012    2    1    2    0    0 -0.24405176976E+00  0.37134923530E+02  0.16556078372E+02  0.50528857881E+02  0.29999994015E+02 0.  0.
         12    1    1    2    0    0  0.24405176976E+00 -0.37134923530E+02 -0.16556078372E+02  0.40659142119E+02  0.00000000000E+00 0. -1.
         11    1    3    3    0    0 -0.57539057267E+01  0.28377103483E+02  0.16994141505E+02  0.33573326898E+02  0.51100000000E-03 0. -1.
        -11    1    3    3    0    0  0.30759690068E+01  0.12282700191E+02 -0.49412514189E+00  0.12671640353E+02  0.51100000000E-03 0.  1.
         12    1    3    3    0    0  0.24338849501E+01 -0.35248801446E+01  0.56062008182E-01  0.42838906304E+01  0.00000000000E+00 0. -1.
</event>
<event>
 7    1  0.5972636E-013  0.5052885E+02  0.7816164E-02  0.1300439E+00
        -11   -1    0    0    0    0  0.00000000000E+00  0.00000000000E+00  0.45593999997E+02  0.45594000000E+02  0.51100000000E-03 0.  1.
         11   -1    0    0    0    0 -0.00000000000E+00 -0.00000000000E+00 -0.45593999997E+02  0.45594000000E+02  0.51100000000E-03 0. -1.
    9900012    2    1    2    0    0  0.18792498056E+02 -0.53739623585E+00  0.36051620052E+02  0.50528854826E+02  0.29999984730E+02 0.  0.
         12    1    1    2    0    0 -0.18792498056E+02  0.53739623585E+00 -0.36051620052E+02  0.40659145174E+02  0.00000000000E+00 0. -1.
         11    1    3    3    0    0  0.10208776680E+02 -0.37431283211E+01  0.88061514042E+01  0.13992084682E+02  0.51100000000E-03 0. -1.
        -11    1    3    3    0    0 -0.70198220128E+01  0.35389274838E+01  0.48418108598E+01  0.92328241340E+01  0.51100000000E-03 0.  1.
        -12    1    3    3    0    0  0.15603543389E+02 -0.33319539857E+00  0.22403657788E+02  0.27303946010E+02  0.00000000000E+00 0.  1.
</event>
<event>
 7    1  0.5972636E-013  0.5052885E+02  0.7816164E-02  0.1300439E+00
        -11   -1    0    0    0    0  0.00000000000E+00  0.00000000000E+00  0.45593999997E+02  0.45594000000E+02  0.51100000000E-03 0. -1.
         11   -1    0    0    0    0 -0.00000000000E+00 -0.00000000000E+00 -0.45593999997E+02  0.45594000000E+02  0.51100000000E-03 0.  1.
    9900012    2    1    2    0    0 -0.85826712854E+01 -0.36969142180E+02 -0.14587216144E+02  0.50528848573E+02  0.29999965724E+02 0.  0.
         12    1    1    2    0    0  0.85826712854E+01  0.36969142180E+02  0.14587216144E+02  0.40659151427E+02  0.00000000000E+00 0. -1.
         11    1    3    3    0    0 -0.87511880799E+00  0.38352973904E+00 -0.18891382587E+00  0.97396954960E+00  0.51100000000E-03 0. -1.
        -11    1    3    3    0    0  0.18885406556E+01 -0.11151153925E+02  0.79337610794E+01  0.13815186745E+02  0.51100000000E-03 0.  1.
        -12    1    3    3    0    0 -0.95960931330E+01 -0.26201517993E+02 -0.22332063398E+02  0.35739692279E+02  0.00000000000E+00 0.  1.
</event>
<event>
 7    1  0.5972636E-013  0.5052885E+02  0.7816164E-02  0.1300439E+00
        -11   -1    0    0    0    0  0.00000000000E+00  0.00000000000E+00  0.45593999997E+02  0.45594000000E+02  0.51100000000E-03 0. -1.
         11   -1    0    0    0    0 -0.00000000000E+00 -0.00000000000E+00 -0.45593999997E+02  0.45594000000E+02  0.51100000000E-03 0.  1.
    9900012    2    1    2    0    0  0.36039315947E+02  0.18533453197E+02 -0.32932251732E+01  0.50528849574E+02  0.29999968765E+02 0.  0.
         12    1    1    2    0    0 -0.36039315947E+02 -0.18533453197E+02  0.32932251732E+01  0.40659150426E+02  0.00000000000E+00 0. -1.
         11    1    3    3    0    0  0.51505207232E+01  0.28353789723E+01  0.10016465803E+02  0.11614509249E+02  0.51100000000E-03 0. -1.
        -11    1    3    3    0    0  0.27903921735E+02  0.17553525336E+02 -0.12796581541E+02  0.35362516869E+02  0.51100000000E-03 0.  1.
        -12    1    3    3    0    0  0.29848734890E+01 -0.18554511112E+01 -0.51310943566E+00  0.35518234562E+01  0.00000000000E+00 0.  1.
</event>
<event>
 7    1  0.5972636E-013  0.5052886E+02  0.7816164E-02  0.1300439E+00
        -11   -1    0    0    0    0  0.00000000000E+00  0.00000000000E+00  0.45593999997E+02  0.45594000000E+02  0.51100000000E-03 0.  1.
         11   -1    0    0    0    0 -0.00000000000E+00 -0.00000000000E+00 -0.45593999997E+02  0.45594000000E+02  0.51100000000E-03 0. -1.
    9900012    2    1    2    0    0  0.14965241964E+02  0.53830073986E+01  0.37419652274E+02  0.50528860658E+02  0.30000002456E+02 0.  0.
         12    1    1    2    0    0 -0.14965241964E+02 -0.53830073986E+01 -0.37419652274E+02  0.40659139342E+02  0.00000000000E+00 0. -1.
         11    1    3    3    0    0  0.18823194934E+01 -0.45627233310E+01  0.16125725314E+02  0.16864180621E+02  0.51100000000E-03 0. -1.
        -11    1    3    3    0    0  0.15253078537E+02  0.11014055322E+02  0.23695375380E+02  0.30256183404E+02  0.51100000000E-03 0.  1.
        -12    1    3    3    0    0 -0.21701560660E+01 -0.10683245922E+01 -0.24014484196E+01  0.34084966330E+01  0.00000000000E+00 0.  1.
</event>
<event>
 7    1  0.5972636E-013  0.5052897E+02  0.7816164E-02  0.1300438E+00
        -11   -1    0    0    0    0  0.00000000000E+00  0.00000000000E+00  0.45593999997E+02  0.45594000000E+02  0.51100000000E-03 0. -1.
         11   -1    0    0    0    0 -0.00000000000E+00 -0.00000000000E+00 -0.45593999997E+02  0.45594000000E+02  0.51100000000E-03 0.  1.
    9900012    2    1    2    0    0 -0.21731862955E+02  0.17711246926E+02 -0.29448162887E+02  0.50528973541E+02  0.30000345574E+02 0.  0.
         12    1    1    2    0    0  0.21731862955E+02 -0.17711246926E+02  0.29448162887E+02  0.40659026459E+02  0.00000000000E+00 0. -1.
         11    1    3    3    0    0  0.38379961123E+01 -0.32423554677E+01 -0.56131120244E+01  0.75332668874E+01  0.51100000000E-03 0. -1.
        -11    1    3    3    0    0 -0.15569518077E+02  0.18464386682E+02 -0.21705191954E+02  0.32472431795E+02  0.51100000000E-03 0.  1.
         12    1    3    3    0    0 -0.10000340990E+02  0.24892157121E+01 -0.21298589091E+01  0.10523274859E+02  0.00000000000E+00 0. -1.
</event>
<event>
 7    1  0.5972636E-013  0.5052887E+02  0.7816164E-02  0.1300439E+00
        -11   -1    0    0    0    0  0.00000000000E+00  0.00000000000E+00  0.45593999997E+02  0.45594000000E+02  0.51100000000E-03 0.  1.
         11   -1    0    0    0    0 -0.00000000000E+00 -0.00000000000E+00 -0.45593999997E+02  0.45594000000E+02  0.51100000000E-03 0. -1.
    9900012    2    1    2    0    0 -0.14444614990E+02  0.94249601201E+01  0.36819670980E+02  0.50528868841E+02  0.30000027330E+02 0.  0.
         12    1    1    2    0    0  0.14444614990E+02 -0.94249601201E+01 -0.36819670980E+02  0.40659131159E+02  0.00000000000E+00 0. -1.
         11    1    3    3    0    0 -0.79764638665E+00 -0.86021455345E+01  0.11252081267E+02  0.14185995935E+02  0.51100000000E-03 0.  1.
        -11    1    3    3    0    0 -0.87490268285E+01  0.18104183579E+02  0.16395068750E+02  0.25944271296E+02  0.51100000000E-03 0. -1.
        -12    1    3    3    0    0 -0.48979417749E+01 -0.77077924137E-01  0.91725209634E+01  0.10398601611E+02  0.00000000000E+00 0.  1.
</event>
<event>
 7    1  0.5972636E-013  0.5052886E+02  0.7816164E-02  0.1300439E+00
        -11   -1    0    0    0    0  0.00000000000E+00  0.00000000000E+00  0.45593999997E+02  0.45594000000E+02  0.51100000000E-03 0.  1.
         11   -1    0    0    0    0 -0.00000000000E+00 -0.00000000000E+00 -0.45593999997E+02  0.45594000000E+02  0.51100000000E-03 0. -1.
    9900012    2    1    2    0    0 -0.14012094103E+02  0.58862712643E+01  0.37711785104E+02  0.50528859499E+02  0.29999998933E+02 0.  0.
         12    1    1    2    0    0  0.14012094103E+02 -0.58862712643E+01 -0.37711785104E+02  0.40659140501E+02  0.00000000000E+00 0. -1.
         11    1    3    3    0    0  0.48816047976E+01  0.38771378305E+01  0.10351482210E+00  0.62348198639E+01  0.51100000000E-03 0. -1.
        -11    1    3    3    0    0 -0.19449723198E+02 -0.17759300035E+01  0.30392961988E+02  0.36127244546E+02  0.51100000000E-03 0.  1.
        -12    1    3    3    0    0  0.55602429725E+00  0.37850634374E+01  0.72153082941E+01  0.81667950888E+01  0.00000000000E+00 0.  1.
</event>
<event>
 7    1  0.5972636E-013  0.5052885E+02  0.7816164E-02  0.1300439E+00
        -11   -1    0    0    0    0  0.00000000000E+00  0.00000000000E+00  0.45593999997E+02  0.45594000000E+02  0.51100000000E-03 0. -1.
         11   -1    0    0    0    0 -0.00000000000E+00 -0.00000000000E+00 -0.45593999997E+02  0.45594000000E+02  0.51100000000E-03 0.  1.
    9900012    2    1    2    0    0  0.23162820211E+02  0.33407352628E+02 -0.77413350679E+00  0.50528846880E+02  0.29999960578E+02 0.  0.
         12    1    1    2    0    0 -0.23162820211E+02 -0.33407352628E+02  0.77413350679E+00  0.40659153120E+02  0.00000000000E+00 0. -1.
         11    1    3    3    0    0  0.14264596838E+02  0.19311199662E+02 -0.13453270292E+02  0.27520749211E+02  0.51100000000E-03 0. -1.
        -11    1    3    3    0    0  0.10524943627E+02  0.90718770878E+01  0.86759719931E+01  0.16381266207E+02  0.51100000000E-03 0.  1.
         12    1    3    3    0    0 -0.16267202543E+01  0.50242758779E+01  0.40031647919E+01  0.66268314626E+01  0.00000000000E+00 0. -1.
</event>
<event>
 7    1  0.5972636E-013  0.5052890E+02  0.7816164E-02  0.1300439E+00
        -11   -1    0    0    0    0  0.00000000000E+00  0.00000000000E+00  0.45593999997E+02  0.45594000000E+02  0.51100000000E-03 0.  1.
         11   -1    0    0    0    0 -0.00000000000E+00 -0.00000000000E+00 -0.45593999997E+02  0.45594000000E+02  0.51100000000E-03 0. -1.
    9900012    2    1    2    0    0 -0.58058947420E+01 -0.24304787968E+02  0.32073840215E+02  0.50528900673E+02  0.30000124085E+02 0.  0.
         12    1    1    2    0    0  0.58058947420E+01  0.24304787968E+02 -0.32073840215E+02  0.40659099327E+02  0.00000000000E+00 0. -1.
         11    1    3    3    0    0  0.19197955119E+01 -0.34386054366E+01 -0.53780150763E+01  0.66657834182E+01  0.51100000000E-03 0. -1.
        -11    1    3    3    0    0 -0.75437210231E+01 -0.17182899611E+02  0.33875036340E+02  0.38725674341E+02  0.51100000000E-03 0.  1.
         12    1    3    3    0    0 -0.18196923072E+00 -0.36832829212E+01  0.35768189518E+01  0.51374429137E+01  0.00000000000E+00 0. -1.
</event>
<event>
 7    1  0.5972636E-013  0.5052888E+02  0.7816164E-02  0.1300439E+00
        -11   -1    0    0    0    0  0.00000000000E+00  0.00000000000E+00  0.45593999997E+02  0.45594000000E+02  0.51100000000E-03 0.  1.
         11   -1    0    0    0    0 -0.00000000000E+00 -0.00000000000E+00 -0.45593999997E+02  0.45594000000E+02  0.51100000000E-03 0. -1.
    9900012    2    1    2    0    0  0.14915086904E+02 -0.31385373329E+02 -0.21110712930E+02  0.50528884457E+02  0.30000074794E+02 0.  0.
         12    1    1    2    0    0 -0.14915086904E+02  0.31385373329E+02  0.21110712930E+02  0.40659115543E+02  0.00000000000E+00 0. -1.
         11    1    3    3    0    0  0.44640921164E+00  0.78283297286E+00  0.13407746084E+01  0.16154830421E+01  0.51100000000E-03 0. -1.
        -11    1    3    3    0    0  0.56633877574E+01 -0.33644499150E+02 -0.20403435476E+02  0.39753320156E+02  0.51100000000E-03 0.  1.
        -12    1    3    3    0    0  0.88052899348E+01  0.14762928483E+01 -0.20480520633E+01  0.91600812586E+01  0.00000000000E+00 0.  1.
</event>
<event>
 7    1  0.5972636E-013  0.5052886E+02  0.7816164E-02  0.1300439E+00
        -11   -1    0    0    0    0  0.00000000000E+00  0.00000000000E+00  0.45593999997E+02  0.45594000000E+02  0.51100000000E-03 0.  1.
         11   -1    0    0    0    0 -0.00000000000E+00 -0.00000000000E+00 -0.45593999997E+02  0.45594000000E+02  0.51100000000E-03 0. -1.
    9900012    2    1    2    0    0 -0.10190397443E+01  0.31751105993E+02  0.25377045472E+02  0.50528860674E+02  0.30000002505E+02 0.  0.
         12    1    1    2    0    0  0.10190397443E+01 -0.31751105993E+02 -0.25377045472E+02  0.40659139326E+02  0.00000000000E+00 0. -1.
         11    1    3    3    0    0 -0.28952763926E+01  0.24744649654E+02  0.25261705455E+01  0.25041203041E+02  0.51100000000E-03 0. -1.
        -11    1    3    3    0    0  0.28751057257E+01 -0.10927827162E+01  0.51988823102E+01  0.60405947170E+01  0.51100000000E-03 0.  1.
         12    1    3    3    0    0 -0.99886907738E+00  0.80992390560E+01  0.17651992617E+02  0.19447062916E+02  0.00000000000E+00 0. -1.
</event>
<event>
 7    1  0.5972636E-013  0.5052900E+02  0.7816164E-02  0.1300438E+00
        -11   -1    0    0    0    0  0.00000000000E+00  0.00000000000E+00  0.45593999997E+02  0.45594000000E+02  0.51100000000E-03 0. -1.
         11   -1    0    0    0    0 -0.00000000000E+00 -0.00000000000E+00 -0.45593999997E+02  0.45594000000E+02  0.51100000000E-03 0.  1.
    9900012    2    1    2    0    0  0.28427128613E+02 -0.18334153049E+02 -0.22559070779E+02  0.50528997508E+02  0.30000418424E+02 0.  0.
         12    1    1    2    0    0 -0.28427128613E+02  0.18334153049E+02  0.22559070779E+02  0.40659002492E+02  0.00000000000E+00 0. -1.
         11    1    3    3    0    0  0.83522725124E+01 -0.39129635365E+01  0.47853031566E+01  0.10390903056E+02  0.51100000000E-03 0. -1.
        -11    1    3    3    0    0  0.21760443995E+02 -0.16040828758E+02 -0.24855474645E+02  0.36723558245E+02  0.51100000000E-03 0.  1.
        -12    1    3    3    0    0 -0.16855878938E+01  0.16196392455E+01 -0.24888992901E+01  0.34145362071E+01  0.00000000000E+00 0.  1.
</event>
<event>
 7    1  0.5972636E-013  0.5052886E+02  0.7816164E-02  0.1300439E+00
        -11   -1    0    0    0    0  0.00000000000E+00  0.00000000000E+00  0.45593999997E+02  0.45594000000E+02  0.51100000000E-03 0.  1.
         11   -1    0    0    0    0 -0.00000000000E+00 -0.00000000000E+00 -0.45593999997E+02  0.45594000000E+02  0.51100000000E-03 0. -1.
    9900012    2    1    2    0    0  0.28983674597E+02  0.23009853518E+02  0.16842166536E+02  0.50528864179E+02  0.30000013159E+02 0.  0.
         12    1    1    2    0    0 -0.28983674597E+02 -0.23009853518E+02 -0.16842166536E+02  0.40659135821E+02  0.00000000000E+00 0. -1.
         11    1    3    3    0    0 -0.34229346297E+01  0.11676544758E+01 -0.62319373863E+00  0.36699140522E+01  0.51100000000E-03 0. -1.
        -11    1    3    3    0    0  0.20249277666E+02  0.23687666730E+02  0.13202216598E+02  0.33844310076E+02  0.51100000000E-03 0.  1.
         12    1    3    3    0    0  0.12157331561E+02 -0.18454676879E+01  0.42631436764E+01  0.13014640051E+02  0.00000000000E+00 0. -1.
</event>
<event>
 7    1  0.5972636E-013  0.5052885E+02  0.7816164E-02  0.1300439E+00
        -11   -1    0    0    0    0  0.00000000000E+00  0.00000000000E+00  0.45593999997E+02  0.45594000000E+02  0.51100000000E-03 0.  1.
         11   -1    0    0    0    0 -0.00000000000E+00 -0.00000000000E+00 -0.45593999997E+02  0.45594000000E+02  0.51100000000E-03 0. -1.
    9900012    2    1    2    0    0 -0.10670723508E+01 -0.27146806181E+02  0.30250268563E+02  0.50528850017E+02  0.29999970111E+02 0.  0.
         12    1    1    2    0    0  0.10670723508E+01  0.27146806181E+02 -0.30250268563E+02  0.40659149983E+02  0.00000000000E+00 0. -1.
         11    1    3    3    0    0 -0.10045119594E+02 -0.18992613456E+02  0.27155850636E+02  0.34627503774E+02  0.51100000000E-03 0. -1.
        -11    1    3    3    0    0  0.75882263559E+01 -0.30577240272E+01  0.57394181990E+01  0.99935867924E+01  0.51100000000E-03 0.  1.
         12    1    3    3    0    0  0.13898208876E+01 -0.50964686978E+01 -0.26450002722E+01  0.59077594507E+01  0.00000000000E+00 0. -1.
</event>
<event>
 7    1  0.5972636E-013  0.5052888E+02  0.7816164E-02  0.1300439E+00
        -11   -1    0    0    0    0  0.00000000000E+00  0.00000000000E+00  0.45593999997E+02  0.45594000000E+02  0.51100000000E-03 0.  1.
         11   -1    0    0    0    0 -0.00000000000E+00 -0.00000000000E+00 -0.45593999997E+02  0.45594000000E+02  0.51100000000E-03 0. -1.
    9900012    2    1    2    0    0 -0.19394042283E+02 -0.21458244306E+02  0.28575844588E+02  0.50528880252E+02  0.30000062014E+02 0.  0.
         12    1    1    2    0    0  0.19394042283E+02  0.21458244306E+02 -0.28575844588E+02  0.40659119748E+02  0.00000000000E+00 0. -1.
         11    1    3    3    0    0 -0.17021189639E+02 -0.50430765253E+01  0.11079197287E+02  0.20926111209E+02  0.51100000000E-03 0. -1.
        -11    1    3    3    0    0  0.86378668111E+00 -0.11831373702E+02  0.68864103049E+00  0.11882834588E+02  0.51100000000E-03 0.  1.
        -12    1    3    3    0    0 -0.32366393248E+01 -0.45837940783E+01  0.16808006271E+02  0.17719934455E+02  0.00000000000E+00 0.  1.
</event>
<event>
 7    1  0.5972636E-013  0.5052886E+02  0.7816164E-02  0.1300439E+00
        -11   -1    0    0    0    0  0.00000000000E+00  0.00000000000E+00  0.45593999997E+02  0.45594000000E+02  0.51100000000E-03 0.  1.
         11   -1    0    0    0    0 -0.00000000000E+00 -0.00000000000E+00 -0.45593999997E+02  0.45594000000E+02  0.51100000000E-03 0. -1.
    9900012    2    1    2    0    0  0.17854841329E+02 -0.36282552607E+02  0.42363657970E+01  0.50528858620E+02  0.29999996262E+02 0.  0.
         12    1    1    2    0    0 -0.17854841329E+02  0.36282552607E+02 -0.42363657970E+01  0.40659141380E+02  0.00000000000E+00 0. -1.
         11    1    3    3    0    0  0.82182482462E+01  0.11161521395E+01  0.32319925683E+01  0.89011895867E+01  0.51100000000E-03 0. -1.
        -11    1    3    3    0    0  0.10930514558E+02 -0.35756929358E+02  0.43916333660E+01  0.37647318490E+02  0.51100000000E-03 0.  1.
        -12    1    3    3    0    0 -0.12939214758E+01 -0.16417753892E+01 -0.33872601373E+01  0.39803505438E+01  0.00000000000E+00 0.  1.
</event>
<event>
 7    1  0.5972636E-013  0.5052885E+02  0.7816164E-02  0.1300439E+00
        -11   -1    0    0    0    0  0.00000000000E+00  0.00000000000E+00  0.45593999997E+02  0.45594000000E+02  0.51100000000E-03 0.  1.
         11   -1    0    0    0    0 -0.00000000000E+00 -0.00000000000E+00 -0.45593999997E+02  0.45594000000E+02  0.51100000000E-03 0. -1.
    9900012    2    1    2    0    0 -0.21724313758E+02 -0.31130256069E+02  0.14564622276E+02  0.50528845149E+02  0.29999955314E+02 0.  0.
         12    1    1    2    0    0  0.21724313758E+02  0.31130256069E+02 -0.14564622276E+02  0.40659154851E+02  0.00000000000E+00 0. -1.
         11    1    3    3    0    0 -0.26672154213E+01 -0.14651824148E+02 -0.25827108633E+00  0.14894854588E+02  0.51100000000E-03 0. -1.
        -11    1    3    3    0    0 -0.54166917232E+01  0.42486607625E+01  0.64854146029E+01  0.94579210364E+01  0.51100000000E-03 0.  1.
        -12    1    3    3    0    0 -0.13640406614E+02 -0.20727092683E+02  0.83374787595E+01  0.26176069524E+02  0.00000000000E+00 0.  1.
</event>
<event>
 7    1  0.5972636E-013  0.5052887E+02  0.7816164E-02  0.1300439E+00
        -11   -1    0    0    0    0  0.00000000000E+00  0.00000000000E+00  0.45593999997E+02  0.45594000000E+02  0.51100000000E-03 0.  1.
         11   -1    0    0    0    0 -0.00000000000E+00 -0.00000000000E+00 -0.45593999997E+02  0.45594000000E+02  0.51100000000E-03 0. -1.
    9900012    2    1    2    0    0 -0.23915524883E+02  0.18996848943E+02  0.26839013366E+02  0.50528865250E+02  0.30000016414E+02 0.  0.
         12    1    1    2    0    0  0.23915524883E+02 -0.18996848943E+02 -0.26839013366E+02  0.40659134750E+02  0.00000000000E+00 0. -1.
         11    1    3    3    0    0 -0.10366937885E+02 -0.52764900017E+01  0.34120723681E+00  0.11637489871E+02  0.51100000000E-03 0. -1.
        -11    1    3    3    0    0 -0.44286936344E+01  0.72606502854E+01  0.44882031706E+01  0.96163578259E+01  0.51100000000E-03 0.  1.
         12    1    3    3    0    0 -0.91198933632E+01  0.17012688659E+02  0.22009602959E+02  0.29275017554E+02  0.00000000000E+00 0. -1.
</event>
<event>
 7    1  0.5972636E-013  0.5052886E+02  0.7816164E-02  0.1300439E+00
        -11   -1    0    0    0    0  0.00000000000E+00  0.00000000000E+00  0.45593999997E+02  0.45594000000E+02  0.51100000000E-03 0.  1.
         11   -1    0    0    0    0 -0.00000000000E+00 -0.00000000000E+00 -0.45593999997E+02  0.45594000000E+02  0.51100000000E-03 0. -1.
    9900012    2    1    2    0    0  0.10417367137E+02  0.38867774925E+02  0.58258083619E+01  0.50528861928E+02  0.30000006315E+02 0.  0.
         12    1    1    2    0    0 -0.10417367137E+02 -0.38867774925E+02 -0.58258083619E+01  0.40659138072E+02  0.00000000000E+00 0. -1.
         11    1    3    3    0    0  0.41327042491E+00  0.15276817567E+02 -0.45208354075E+01  0.15937060597E+02  0.51100000000E-03 0. -1.
        -11    1    3    3    0    0  0.12417905364E+02  0.54275146242E+01  0.60737637601E-02  0.13552207414E+02  0.51100000000E-03 0.  1.
        -12    1    3    3    0    0 -0.24138086520E+01  0.18163442734E+02  0.10340570006E+02  0.21039593917E+02  0.00000000000E+00 0.  1.
</event>
<event>
 7    1  0.5972636E-013  0.5052886E+02  0.7816164E-02  0.1300439E+00
        -11   -1    0    0    0    0  0.00000000000E+00  0.00000000000E+00  0.45593999997E+02  0.45594000000E+02  0.51100000000E-03 0.  1.
         11   -1    0    0    0    0 -0.00000000000E+00 -0.00000000000E+00 -0.45593999997E+02  0.45594000000E+02  0.51100000000E-03 0. -1.
    9900012    2    1    2    0    0  0.26587009707E-01 -0.20884541576E+02  0.34885545009E+02  0.50528855466E+02  0.29999986673E+02 0.  0.
         12    1    1    2    0    0 -0.26587009707E-01  0.20884541576E+02 -0.34885545009E+02  0.40659144534E+02  0.00000000000E+00 0. -1.
         11    1    3    3    0    0  0.10486160086E+02  0.17071473084E-01  0.17807867338E+02  0.20665913582E+02  0.51100000000E-03 0. -1.
        -11    1    3    3    0    0 -0.47869545088E+01 -0.15696575034E+02  0.90503945710E+01  0.18740518761E+02  0.51100000000E-03 0.  1.
        -12    1    3    3    0    0 -0.56726185679E+01 -0.52050380151E+01  0.80272831002E+01  0.11122423123E+02  0.00000000000E+00 0.  1.
</event>
<event>
 7    1  0.5972636E-013  0.5052886E+02  0.7816164E-02  0.1300439E+00
        -11   -1    0    0    0    0  0.00000000000E+00  0.00000000000E+00  0.45593999997E+02  0.45594000000E+02  0.51100000000E-03 0.  1.
         11   -1    0    0    0    0 -0.00000000000E+00 -0.00000000000E+00 -0.45593999997E+02  0.45594000000E+02  0.51100000000E-03 0. -1.
    9900012    2    1    2    0    0 -0.22271797348E+02  0.33153162502E+02  0.76158020295E+01  0.50528861033E+02  0.30000003595E+02 0.  0.
         12    1    1    2    0    0  0.22271797348E+02 -0.33153162502E+02 -0.76158020295E+01  0.40659138967E+02  0.00000000000E+00 0. -1.
         11    1    3    3    0    0 -0.15220963429E+02  0.68544719140E+01  0.59693815182E+01  0.17728367914E+02  0.51100000000E-03 0.  1.
        -11    1    3    3    0    0  0.22395566181E+01  0.22673075635E+02  0.13475496577E+01  0.22823230773E+02  0.51100000000E-03 0. -1.
         12    1    3    3    0    0 -0.92903905377E+01  0.36256149536E+01  0.29887085360E+00  0.99772623460E+01  0.00000000000E+00 0. -1.
</event>
<event>
 7    1  0.5972636E-013  0.5052887E+02  0.7816164E-02  0.1300439E+00
        -11   -1    0    0    0    0  0.00000000000E+00  0.00000000000E+00  0.45593999997E+02  0.45594000000E+02  0.51100000000E-03 0. -1.
         11   -1    0    0    0    0 -0.00000000000E+00 -0.00000000000E+00 -0.45593999997E+02  0.45594000000E+02  0.51100000000E-03 0.  1.
    9900012    2    1    2    0    0  0.38081794437E+02 -0.10561524203E-01 -0.14245769521E+02  0.50528866606E+02  0.30000020536E+02 0.  0.
         12    1    1    2    0    0 -0.38081794437E+02  0.10561524203E-01  0.14245769521E+02  0.40659133394E+02  0.00000000000E+00 0. -1.
         11    1    3    3    0    0  0.73205866490E+01  0.16002529287E+01 -0.10565773055E+02  0.12953275989E+02  0.51100000000E-03 0. -1.
        -11    1    3    3    0    0  0.11870523200E+02  0.25705496992E+01  0.83988826735E+01  0.14766796444E+02  0.51100000000E-03 0.  1.
        -12    1    3    3    0    0  0.18890684588E+02 -0.41813641521E+01 -0.12078879139E+02  0.22808794173E+02  0.00000000000E+00 0.  1.
</event>
<event>
 7    1  0.5972636E-013  0.5052886E+02  0.7816164E-02  0.1300439E+00
        -11   -1    0    0    0    0  0.00000000000E+00  0.00000000000E+00  0.45593999997E+02  0.45594000000E+02  0.51100000000E-03 0. -1.
         11   -1    0    0    0    0 -0.00000000000E+00 -0.00000000000E+00 -0.45593999997E+02  0.45594000000E+02  0.51100000000E-03 0.  1.
    9900012    2    1    2    0    0  0.28974814549E+02  0.22591847345E+02 -0.17413629805E+02  0.50528856532E+02  0.29999989914E+02 0.  0.
         12    1    1    2    0    0 -0.28974814549E+02 -0.22591847345E+02  0.17413629805E+02  0.40659143468E+02  0.00000000000E+00 0. -1.
         11    1    3    3    0    0  0.41881417424E+01  0.11397518074E+02  0.40238746575E+01  0.12792009890E+02  0.51100000000E-03 0. -1.
        -11    1    3    3    0    0  0.21984812572E+02  0.10807453898E+02 -0.23722169671E+02  0.34100943942E+02  0.51100000000E-03 0.  1.
        -12    1    3    3    0    0  0.28018602344E+01  0.38687537299E+00  0.22846652089E+01  0.36359027001E+01  0.00000000000E+00 0.  1.
</event>
<event>
 7    1  0.5972636E-013  0.5052885E+02  0.7816164E-02  0.1300439E+00
        -11   -1    0    0    0    0  0.00000000000E+00  0.00000000000E+00  0.45593999997E+02  0.45594000000E+02  0.51100000000E-03 0. -1.
         11   -1    0    0    0    0 -0.00000000000E+00 -0.00000000000E+00 -0.45593999997E+02  0.45594000000E+02  0.51100000000E-03 0.  1.
    9900012    2    1    2    0    0  0.30255204500E+02  0.26697122559E+02  0.50053008217E+01  0.50528846189E+02  0.29999958477E+02 0.  0.
         12    1    1    2    0    0 -0.30255204500E+02 -0.26697122559E+02 -0.50053008217E+01  0.40659153811E+02  0.00000000000E+00 0. -1.
         11    1    3    3    0    0  0.14163010438E+02  0.23809369616E+02  0.90498475983E+01  0.29144067801E+02  0.51100000000E-03 0.  1.
        -11    1    3    3    0    0  0.14237317759E+02 -0.13150813815E+01  0.12767321040E+01  0.14354814563E+02  0.51100000000E-03 0. -1.
        -12    1    3    3    0    0  0.18548763034E+01  0.42028343251E+01 -0.53212788806E+01  0.70299638256E+01  0.00000000000E+00 0.  1.
</event>
