<event>
 7    1  0.4119299E-008  0.4614232E+02  0.7816164E-02  0.1320468E+00
        -11   -1    0    0    0    0  0.00000000000E+00  0.00000000000E+00  0.45593999997E+02  0.45594000000E+02  0.51100000000E-03 0.  1.
         11   -1    0    0    0    0 -0.00000000000E+00 -0.00000000000E+00 -0.45593999997E+02  0.45594000000E+02  0.51100000000E-03 0. -1.
    9900012    2    1    2    0    0 -0.13326975476E+01  0.11461299813E+02 -0.43542805116E+02  0.46142319258E+02  0.10000013646E+02 0.  0.
        -12    1    1    2    0    0  0.13326975476E+01 -0.11461299813E+02  0.43542805116E+02  0.45045680742E+02  0.00000000000E+00 0.  1.
         11    1    3    3    0    0 -0.33983049128E+01  0.64378609429E+01 -0.24683483989E+02  0.25734585909E+02  0.51100000000E-03 0. -1.
        -11    1    3    3    0    0 -0.10967199312E+01  0.15989942874E+01 -0.15516753221E+01  0.24833996667E+01  0.51100000000E-03 0.  1.
         12    1    3    3    0    0  0.31623272964E+01  0.34244445824E+01 -0.17307645805E+02  0.17924333682E+02  0.00000000000E+00 0. -1.
</event>
<event>
 7    1  0.4119299E-008  0.4614232E+02  0.7816164E-02  0.1320468E+00
        -11   -1    0    0    0    0  0.00000000000E+00  0.00000000000E+00  0.45593999997E+02  0.45594000000E+02  0.51100000000E-03 0. -1.
         11   -1    0    0    0    0 -0.00000000000E+00 -0.00000000000E+00 -0.45593999997E+02  0.45594000000E+02  0.51100000000E-03 0.  1.
    9900012    2    1    2    0    0  0.19346759006E+02 -0.14290352993E+02  0.38086771698E+02  0.46142318175E+02  0.10000003777E+02 0.  0.
        -12    1    1    2    0    0 -0.19346759006E+02  0.14290352993E+02 -0.38086771698E+02  0.45045681825E+02  0.00000000000E+00 0.  1.
         11    1    3    3    0    0  0.64142555987E+01 -0.64353359717E+01  0.20599686803E+02  0.22514513555E+02  0.51100000000E-03 0. -1.
        -11    1    3    3    0    0  0.21929902013E+01 -0.10175002033E+01  0.60441261436E+01  0.65096830789E+01  0.51100000000E-03 0.  1.
        -12    1    3    3    0    0  0.10739513206E+02 -0.68375168182E+01  0.11442958751E+02  0.17118121542E+02  0.00000000000E+00 0.  1.
</event>
<event>
 7    1  0.4119299E-008  0.4614232E+02  0.7816164E-02  0.1320468E+00
        -11   -1    0    0    0    0  0.00000000000E+00  0.00000000000E+00  0.45593999997E+02  0.45594000000E+02  0.51100000000E-03 0.  1.
         11   -1    0    0    0    0 -0.00000000000E+00 -0.00000000000E+00 -0.45593999997E+02  0.45594000000E+02  0.51100000000E-03 0. -1.
    9900012    2    1    2    0    0  0.36431991789E+01 -0.42972959306E+02  0.13006359108E+02  0.46142317531E+02  0.99999979060E+01 0.  0.
        -12    1    1    2    0    0 -0.36431991789E+01  0.42972959306E+02 -0.13006359108E+02  0.45045682469E+02  0.00000000000E+00 0.  1.
         11    1    3    3    0    0 -0.16323131983E+01 -0.13539452443E+02  0.12739430357E+01  0.13696866428E+02  0.51100000000E-03 0. -1.
        -11    1    3    3    0    0  0.60988460141E+01 -0.25126362199E+02  0.10305008146E+02  0.27833849774E+02  0.51100000000E-03 0.  1.
        -12    1    3    3    0    0 -0.82333363678E+00 -0.43071446643E+01  0.14274079266E+01  0.46116013299E+01  0.00000000000E+00 0.  1.
</event>
<event>
 7    1  0.4119299E-008  0.4614232E+02  0.7816164E-02  0.1320468E+00
        -11   -1    0    0    0    0  0.00000000000E+00  0.00000000000E+00  0.45593999997E+02  0.45594000000E+02  0.51100000000E-03 0.  1.
         11   -1    0    0    0    0 -0.00000000000E+00 -0.00000000000E+00 -0.45593999997E+02  0.45594000000E+02  0.51100000000E-03 0. -1.
    9900012    2    1    2    0    0 -0.98285013380E+01 -0.38701674035E+02 -0.20849329056E+02  0.46142317257E+02  0.99999954060E+01 0.  0.
        -12    1    1    2    0    0  0.98285013380E+01  0.38701674035E+02  0.20849329056E+02  0.45045682743E+02  0.00000000000E+00 0.  1.
         11    1    3    3    0    0 -0.45403563453E+01 -0.17420325083E+02 -0.71923023229E+01  0.19385865333E+02  0.51100000000E-03 0. -1.
        -11    1    3    3    0    0  0.10196622673E+01 -0.78024187702E+01 -0.28680278641E+01  0.83751438134E+01  0.51100000000E-03 0.  1.
         12    1    3    3    0    0 -0.63078072601E+01 -0.13478930182E+02 -0.10788998869E+02  0.18381308111E+02  0.00000000000E+00 0. -1.
</event>
<event>
 7    1  0.4119299E-008  0.4614232E+02  0.7816164E-02  0.1320468E+00
        -11   -1    0    0    0    0  0.00000000000E+00  0.00000000000E+00  0.45593999997E+02  0.45594000000E+02  0.51100000000E-03 0.  1.
         11   -1    0    0    0    0 -0.00000000000E+00 -0.00000000000E+00 -0.45593999997E+02  0.45594000000E+02  0.51100000000E-03 0. -1.
    9900012    2    1    2    0    0 -0.10410198356E+02  0.35416923435E+02 -0.25814393506E+02  0.46142316439E+02  0.99999879425E+01 0.  0.
        -12    1    1    2    0    0  0.10410198356E+02 -0.35416923435E+02  0.25814393506E+02  0.45045683561E+02  0.00000000000E+00 0.  1.
         11    1    3    3    0    0 -0.60810679614E+01  0.20913314131E+02 -0.10504096096E+02  0.24180201210E+02  0.51100000000E-03 0. -1.
        -11    1    3    3    0    0 -0.14883578094E+01  0.20132266636E+01 -0.84943487338E+00  0.26438287451E+01  0.51100000000E-03 0.  1.
         12    1    3    3    0    0 -0.28407725857E+01  0.12490382641E+02 -0.14460862536E+02  0.19318286484E+02  0.00000000000E+00 0. -1.
</event>
<event>
 7    1  0.4119299E-008  0.4614232E+02  0.7816164E-02  0.1320468E+00
        -11   -1    0    0    0    0  0.00000000000E+00  0.00000000000E+00  0.45593999997E+02  0.45594000000E+02  0.51100000000E-03 0.  1.
         11   -1    0    0    0    0 -0.00000000000E+00 -0.00000000000E+00 -0.45593999997E+02  0.45594000000E+02  0.51100000000E-03 0. -1.
    9900012    2    1    2    0    0 -0.29364748833E+02  0.18652355011E+02 -0.28616685990E+02  0.46142317204E+02  0.99999949234E+01 0.  0.
        -12    1    1    2    0    0  0.29364748833E+02 -0.18652355011E+02  0.28616685990E+02  0.45045682796E+02  0.00000000000E+00 0.  1.
         11    1    3    3    0    0 -0.81843016201E+01  0.95856182964E+01 -0.10999315258E+02  0.16728771848E+02  0.51100000000E-03 0. -1.
        -11    1    3    3    0    0 -0.10880978124E+01  0.29176031340E+00 -0.26144565057E+01  0.28468340329E+01  0.51100000000E-03 0.  1.
         12    1    3    3    0    0 -0.20092349400E+02  0.87749764014E+01 -0.15002914226E+02  0.26566711324E+02  0.00000000000E+00 0. -1.
</event>
<event>
 7    1  0.4119299E-008  0.4614232E+02  0.7816164E-02  0.1320468E+00
        -11   -1    0    0    0    0  0.00000000000E+00  0.00000000000E+00  0.45593999997E+02  0.45594000000E+02  0.51100000000E-03 0. -1.
         11   -1    0    0    0    0 -0.00000000000E+00 -0.00000000000E+00 -0.45593999997E+02  0.45594000000E+02  0.51100000000E-03 0.  1.
    9900012    2    1    2    0    0 -0.18824170507E+02  0.38203590878E+02 -0.14671390986E+02  0.46142318024E+02  0.10000002399E+02 0.  0.
        -12    1    1    2    0    0  0.18824170507E+02 -0.38203590878E+02  0.14671390986E+02  0.45045681976E+02  0.00000000000E+00 0.  1.
         11    1    3    3    0    0 -0.53385607795E+01  0.13523014307E+02 -0.32595202011E+01  0.14899550978E+02  0.51100000000E-03 0. -1.
        -11    1    3    3    0    0 -0.61884516237E+00  0.67527484527E+01 -0.44200825390E+01  0.80944246808E+01  0.51100000000E-03 0.  1.
        -12    1    3    3    0    0 -0.12866764565E+02  0.17927828118E+02 -0.69917882454E+01  0.23148342365E+02  0.00000000000E+00 0.  1.
</event>
<event>
 7    1  0.4119299E-008  0.4614232E+02  0.7816164E-02  0.1320468E+00
        -11   -1    0    0    0    0  0.00000000000E+00  0.00000000000E+00  0.45593999997E+02  0.45594000000E+02  0.51100000000E-03 0. -1.
         11   -1    0    0    0    0 -0.00000000000E+00 -0.00000000000E+00 -0.45593999997E+02  0.45594000000E+02  0.51100000000E-03 0.  1.
    9900012    2    1    2    0    0 -0.20568889543E+02 -0.25647352455E+02  0.30793629469E+02  0.46142317400E+02  0.99999967103E+01 0.  0.
        -12    1    1    2    0    0  0.20568889543E+02  0.25647352455E+02 -0.30793629469E+02  0.45045682600E+02  0.00000000000E+00 0.  1.
         11    1    3    3    0    0 -0.64803975414E+01 -0.11869655668E+02  0.75105951677E+01  0.15469108507E+02  0.51100000000E-03 0. -1.
        -11    1    3    3    0    0 -0.13726433479E+02 -0.13362719608E+02  0.21448877613E+02  0.28758157147E+02  0.51100000000E-03 0.  1.
         12    1    3    3    0    0 -0.36205852338E+00 -0.41497717870E+00  0.18341566888E+01  0.19150517467E+01  0.00000000000E+00 0. -1.
</event>
<event>
 7    1  0.4119299E-008  0.4614232E+02  0.7816164E-02  0.1320468E+00
        -11   -1    0    0    0    0  0.00000000000E+00  0.00000000000E+00  0.45593999997E+02  0.45594000000E+02  0.51100000000E-03 0.  1.
         11   -1    0    0    0    0 -0.00000000000E+00 -0.00000000000E+00 -0.45593999997E+02  0.45594000000E+02  0.51100000000E-03 0. -1.
    9900012    2    1    2    0    0 -0.12241186924E+02  0.10646707842E+02 -0.42022784618E+02  0.46142317940E+02  0.10000001635E+02 0.  0.
        -12    1    1    2    0    0  0.12241186924E+02 -0.10646707842E+02  0.42022784618E+02  0.45045682060E+02  0.00000000000E+00 0.  1.
         11    1    3    3    0    0 -0.19410983100E+01  0.71212821440E+01 -0.20411515100E+02  0.21705079382E+02  0.51100000000E-03 0. -1.
        -11    1    3    3    0    0 -0.14040942246E+01 -0.53807229972E+00 -0.18157183372E+01  0.23575062529E+01  0.51100000000E-03 0.  1.
         12    1    3    3    0    0 -0.88959943897E+01  0.40634979982E+01 -0.19795551180E+02  0.22079732306E+02  0.00000000000E+00 0. -1.
</event>
<event>
 7    1  0.4119299E-008  0.4614232E+02  0.7816164E-02  0.1320468E+00
        -11   -1    0    0    0    0  0.00000000000E+00  0.00000000000E+00  0.45593999997E+02  0.45594000000E+02  0.51100000000E-03 0.  1.
         11   -1    0    0    0    0 -0.00000000000E+00 -0.00000000000E+00 -0.45593999997E+02  0.45594000000E+02  0.51100000000E-03 0. -1.
    9900012    2    1    2    0    0 -0.26425224578E+02  0.85358794370E+01  0.35467728862E+02  0.46142317384E+02  0.99999965573E+01 0.  0.
        -12    1    1    2    0    0  0.26425224578E+02 -0.85358794370E+01 -0.35467728862E+02  0.45045682616E+02  0.00000000000E+00 0.  1.
         11    1    3    3    0    0 -0.74444046116E+01  0.12103210850E+01  0.13510804145E+02  0.15473392197E+02  0.51100000000E-03 0. -1.
        -11    1    3    3    0    0 -0.29640621431E+01 -0.12767996543E+01  0.31003459186E+01  0.44752683519E+01  0.51100000000E-03 0.  1.
         12    1    3    3    0    0 -0.16016757824E+02  0.86023580062E+01  0.18856578798E+02  0.26193656835E+02  0.00000000000E+00 0. -1.
</event>
<event>
 7    1  0.4119299E-008  0.4614232E+02  0.7816164E-02  0.1320468E+00
        -11   -1    0    0    0    0  0.00000000000E+00  0.00000000000E+00  0.45593999997E+02  0.45594000000E+02  0.51100000000E-03 0. -1.
         11   -1    0    0    0    0 -0.00000000000E+00 -0.00000000000E+00 -0.45593999997E+02  0.45594000000E+02  0.51100000000E-03 0.  1.
    9900012    2    1    2    0    0 -0.21689101865E+02 -0.16050490264E+02  0.36070460206E+02  0.46142317888E+02  0.10000001161E+02 0.  0.
        -12    1    1    2    0    0  0.21689101865E+02  0.16050490264E+02 -0.36070460206E+02  0.45045682112E+02  0.00000000000E+00 0.  1.
         11    1    3    3    0    0 -0.87460359510E+01 -0.10331198644E+02  0.16762090611E+02  0.21545173292E+02  0.51100000000E-03 0. -1.
        -11    1    3    3    0    0 -0.16114633301E+01 -0.28843866999E+01  0.63013925728E+01  0.71150579278E+01  0.51100000000E-03 0.  1.
         12    1    3    3    0    0 -0.11331602584E+02 -0.28349049197E+01  0.13006977022E+02  0.17482086668E+02  0.00000000000E+00 0. -1.
</event>
<event>
 7    1  0.4119299E-008  0.4614232E+02  0.7816164E-02  0.1320468E+00
        -11   -1    0    0    0    0  0.00000000000E+00  0.00000000000E+00  0.45593999997E+02  0.45594000000E+02  0.51100000000E-03 0. -1.
         11   -1    0    0    0    0 -0.00000000000E+00 -0.00000000000E+00 -0.45593999997E+02  0.45594000000E+02  0.51100000000E-03 0.  1.
    9900012    2    1    2    0    0 -0.51029452088E+01  0.23492700949E+02  0.38094177788E+02  0.46142318420E+02  0.10000006008E+02 0.  0.
        -12    1    1    2    0    0  0.51029452088E+01 -0.23492700949E+02 -0.38094177788E+02  0.45045681580E+02  0.00000000000E+00 0.  1.
         11    1    3    3    0    0 -0.15655590094E+01  0.86424471750E+01  0.96765745780E+01  0.13068242575E+02  0.51100000000E-03 0. -1.
        -11    1    3    3    0    0  0.19093057737E+01  0.35354120586E+01  0.43131451507E+01  0.58947271619E+01  0.51100000000E-03 0.  1.
        -12    1    3    3    0    0 -0.54466919731E+01  0.11314841715E+02  0.24104458059E+02  0.27179348683E+02  0.00000000000E+00 0.  1.
</event>
<event>
 7    1  0.4119299E-008  0.4614232E+02  0.7816164E-02  0.1320468E+00
        -11   -1    0    0    0    0  0.00000000000E+00  0.00000000000E+00  0.45593999997E+02  0.45594000000E+02  0.51100000000E-03 0.  1.
         11   -1    0    0    0    0 -0.00000000000E+00 -0.00000000000E+00 -0.45593999997E+02  0.45594000000E+02  0.51100000000E-03 0. -1.
    9900012    2    1    2    0    0  0.41556509790E+02  0.69796230816E+01 -0.15920266546E+02  0.46142317286E+02  0.99999956687E+01 0.  0.
        -12    1    1    2    0    0 -0.41556509790E+02 -0.69796230816E+01  0.15920266546E+02  0.45045682714E+02  0.00000000000E+00 0.  1.
         11    1    3    3    0    0  0.13700123405E+02  0.48239020936E+01 -0.54908564954E+01  0.15527811115E+02  0.51100000000E-03 0. -1.
        -11    1    3    3    0    0  0.22502837281E+02  0.13155069549E+01 -0.53069204125E+01  0.23157539783E+02  0.51100000000E-03 0.  1.
        -12    1    3    3    0    0  0.53535491040E+01  0.84021403308E+00 -0.51224896379E+01  0.74569663886E+01  0.00000000000E+00 0.  1.
</event>
<event>
 7    1  0.4119299E-008  0.4614232E+02  0.7816164E-02  0.1320468E+00
        -11   -1    0    0    0    0  0.00000000000E+00  0.00000000000E+00  0.45593999997E+02  0.45594000000E+02  0.51100000000E-03 0.  1.
         11   -1    0    0    0    0 -0.00000000000E+00 -0.00000000000E+00 -0.45593999997E+02  0.45594000000E+02  0.51100000000E-03 0. -1.
    9900012    2    1    2    0    0  0.10961763314E+02 -0.43154472737E+02 -0.68296929246E+01  0.46142317880E+02  0.10000001086E+02 0.  0.
        -12    1    1    2    0    0 -0.10961763314E+02  0.43154472737E+02  0.68296929246E+01  0.45045682120E+02  0.00000000000E+00 0.  1.
         11    1    3    3    0    0  0.57242597553E+01 -0.28013607373E+02 -0.36003667457E+01  0.28818257906E+02  0.51100000000E-03 0. -1.
        -11    1    3    3    0    0  0.56059917030E+01 -0.13159098870E+02 -0.10296435140E+01  0.14340473914E+02  0.51100000000E-03 0.  1.
        -12    1    3    3    0    0 -0.36848814459E+00 -0.19817664940E+01 -0.21996826649E+01  0.29835860598E+01  0.00000000000E+00 0.  1.
</event>
<event>
 7    1  0.4119299E-008  0.4614232E+02  0.7816164E-02  0.1320468E+00
        -11   -1    0    0    0    0  0.00000000000E+00  0.00000000000E+00  0.45593999997E+02  0.45594000000E+02  0.51100000000E-03 0.  1.
         11   -1    0    0    0    0 -0.00000000000E+00 -0.00000000000E+00 -0.45593999997E+02  0.45594000000E+02  0.51100000000E-03 0. -1.
    9900012    2    1    2    0    0  0.23327309232E+02  0.20246557205E+02 -0.32787605712E+02  0.46142317377E+02  0.99999964952E+01 0.  0.
        -12    1    1    2    0    0 -0.23327309232E+02 -0.20246557205E+02  0.32787605712E+02  0.45045682623E+02  0.00000000000E+00 0.  1.
         11    1    3    3    0    0  0.45833248960E+01  0.42292697942E+01 -0.70640108871E+01  0.94230483479E+01  0.51100000000E-03 0. -1.
        -11    1    3    3    0    0  0.37161675829E+01  0.57590498321E+01 -0.12397500544E+02  0.14165965427E+02  0.51100000000E-03 0.  1.
        -12    1    3    3    0    0  0.15027816753E+02  0.10258237579E+02 -0.13326094282E+02  0.22553303602E+02  0.00000000000E+00 0.  1.
</event>
<event>
 7    1  0.4119299E-008  0.4614232E+02  0.7816164E-02  0.1320468E+00
        -11   -1    0    0    0    0  0.00000000000E+00  0.00000000000E+00  0.45593999997E+02  0.45594000000E+02  0.51100000000E-03 0. -1.
         11   -1    0    0    0    0 -0.00000000000E+00 -0.00000000000E+00 -0.45593999997E+02  0.45594000000E+02  0.51100000000E-03 0.  1.
    9900012    2    1    2    0    0 -0.38343556969E+02  0.46373712864E+01  0.23181455467E+02  0.46142318176E+02  0.10000003779E+02 0.  0.
        -12    1    1    2    0    0  0.38343556969E+02 -0.46373712864E+01 -0.23181455467E+02  0.45045681824E+02  0.00000000000E+00 0.  1.
         11    1    3    3    0    0 -0.24076425817E+02  0.42209152539E+01  0.17678325992E+02  0.30166431938E+02  0.51100000000E-03 0.  1.
        -11    1    3    3    0    0 -0.97198771952E+01 -0.13333196188E+01  0.51761786407E+01  0.11092636273E+02  0.51100000000E-03 0. -1.
         12    1    3    3    0    0 -0.45472539561E+01  0.17497756512E+01  0.32695083398E+00  0.48832499648E+01  0.00000000000E+00 0. -1.
</event>
<event>
 7    1  0.4119299E-008  0.4614232E+02  0.7816164E-02  0.1320468E+00
        -11   -1    0    0    0    0  0.00000000000E+00  0.00000000000E+00  0.45593999997E+02  0.45594000000E+02  0.51100000000E-03 0. -1.
         11   -1    0    0    0    0 -0.00000000000E+00 -0.00000000000E+00 -0.45593999997E+02  0.45594000000E+02  0.51100000000E-03 0.  1.
    9900012    2    1    2    0    0  0.78234791163E+01  0.14174477915E+02  0.42035592087E+02  0.46142315947E+02  0.99999834606E+01 0.  0.
        -12    1    1    2    0    0 -0.78234791163E+01 -0.14174477915E+02 -0.42035592087E+02  0.45045684053E+02  0.00000000000E+00 0.  1.
         11    1    3    3    0    0  0.41057199815E+01  0.54490665282E+01  0.22986077122E+02  0.23977260150E+02  0.51100000000E-03 0. -1.
        -11    1    3    3    0    0  0.50214165523E+01  0.52935251001E+01  0.98333843616E+01  0.12244651095E+02  0.51100000000E-03 0.  1.
        -12    1    3    3    0    0 -0.13036574175E+01  0.34318862864E+01  0.92161306038E+01  0.99204047020E+01  0.00000000000E+00 0.  1.
</event>
<event>
 7    1  0.4119299E-008  0.4614232E+02  0.7816164E-02  0.1320468E+00
        -11   -1    0    0    0    0  0.00000000000E+00  0.00000000000E+00  0.45593999997E+02  0.45594000000E+02  0.51100000000E-03 0. -1.
         11   -1    0    0    0    0 -0.00000000000E+00 -0.00000000000E+00 -0.45593999997E+02  0.45594000000E+02  0.51100000000E-03 0.  1.
    9900012    2    1    2    0    0 -0.24211861068E+02 -0.37850181386E+02  0.32035947609E+01  0.46142318002E+02  0.10000002193E+02 0.  0.
        -12    1    1    2    0    0  0.24211861068E+02  0.37850181386E+02 -0.32035947609E+01  0.45045681998E+02  0.00000000000E+00 0.  1.
         11    1    3    3    0    0 -0.49991860572E+01 -0.54795676881E+01  0.19908903248E+01  0.76799197802E+01  0.51100000000E-03 0. -1.
        -11    1    3    3    0    0 -0.44192320551E+01 -0.28985441809E+01  0.14673915848E+01  0.54849255829E+01  0.51100000000E-03 0.  1.
        -12    1    3    3    0    0 -0.14793442956E+02 -0.29472069517E+02 -0.25468714865E+00  0.32977472638E+02  0.00000000000E+00 0.  1.
</event>
<event>
 7    1  0.4119299E-008  0.4614232E+02  0.7816164E-02  0.1320468E+00
        -11   -1    0    0    0    0  0.00000000000E+00  0.00000000000E+00  0.45593999997E+02  0.45594000000E+02  0.51100000000E-03 0.  1.
         11   -1    0    0    0    0 -0.00000000000E+00 -0.00000000000E+00 -0.45593999997E+02  0.45594000000E+02  0.51100000000E-03 0. -1.
    9900012    2    1    2    0    0 -0.20289806406E+02  0.35270136509E+02 -0.19324979601E+02  0.46142316412E+02  0.99999876950E+01 0.  0.
        -12    1    1    2    0    0  0.20289806406E+02 -0.35270136509E+02  0.19324979601E+02  0.45045683588E+02  0.00000000000E+00 0.  1.
         11    1    3    3    0    0 -0.23634767311E+01  0.89726544205E+01 -0.25402393062E+01  0.96201541361E+01  0.51100000000E-03 0. -1.
        -11    1    3    3    0    0 -0.82291472021E+00  0.66584360804E+00  0.52228679484E+00  0.11803898103E+01  0.51100000000E-03 0.  1.
         12    1    3    3    0    0 -0.17103414954E+02  0.25631638481E+02 -0.17307027090E+02  0.35341772465E+02  0.00000000000E+00 0. -1.
</event>
<event>
 7    1  0.4119299E-008  0.4614232E+02  0.7816164E-02  0.1320468E+00
        -11   -1    0    0    0    0  0.00000000000E+00  0.00000000000E+00  0.45593999997E+02  0.45594000000E+02  0.51100000000E-03 0.  1.
         11   -1    0    0    0    0 -0.00000000000E+00 -0.00000000000E+00 -0.45593999997E+02  0.45594000000E+02  0.51100000000E-03 0. -1.
    9900012    2    1    2    0    0 -0.14176431102E+02  0.33443603186E+02 -0.26639589656E+02  0.46142317300E+02  0.99999957967E+01 0.  0.
        -12    1    1    2    0    0  0.14176431102E+02 -0.33443603186E+02  0.26639589656E+02  0.45045682700E+02  0.00000000000E+00 0.  1.
         11    1    3    3    0    0 -0.12389678211E+02  0.27413456215E+02 -0.17173229575E+02  0.34639883402E+02  0.51100000000E-03 0. -1.
        -11    1    3    3    0    0 -0.20052588090E+01  0.59572446125E+01 -0.89470345086E+01  0.10934315389E+02  0.51100000000E-03 0.  1.
         12    1    3    3    0    0  0.21850591803E+00  0.72902358542E-01 -0.51932557263E+00  0.56811850919E+00  0.00000000000E+00 0. -1.
</event>
<event>
 7    1  0.4119299E-008  0.4614232E+02  0.7816164E-02  0.1320468E+00
        -11   -1    0    0    0    0  0.00000000000E+00  0.00000000000E+00  0.45593999997E+02  0.45594000000E+02  0.51100000000E-03 0.  1.
         11   -1    0    0    0    0 -0.00000000000E+00 -0.00000000000E+00 -0.45593999997E+02  0.45594000000E+02  0.51100000000E-03 0. -1.
    9900012    2    1    2    0    0  0.93418745835E+01  0.70091126823E+01 -0.43505347117E+02  0.46142317531E+02  0.99999978988E+01 0.  0.
        -12    1    1    2    0    0 -0.93418745835E+01 -0.70091126823E+01  0.43505347117E+02  0.45045682469E+02  0.00000000000E+00 0.  1.
         11    1    3    3    0    0 -0.96740097989E+00  0.22029053287E+00 -0.23140918670E+01  0.25178192955E+01  0.51100000000E-03 0. -1.
        -11    1    3    3    0    0  0.34828282849E+01  0.34658526726E+01 -0.67061556215E+01  0.83135281975E+01  0.51100000000E-03 0.  1.
         12    1    3    3    0    0  0.68264472785E+01  0.33229694769E+01 -0.34485099629E+02  0.35310970038E+02  0.00000000000E+00 0. -1.
</event>
<event>
 7    1  0.4119299E-008  0.4614232E+02  0.7816164E-02  0.1320468E+00
        -11   -1    0    0    0    0  0.00000000000E+00  0.00000000000E+00  0.45593999997E+02  0.45594000000E+02  0.51100000000E-03 0.  1.
         11   -1    0    0    0    0 -0.00000000000E+00 -0.00000000000E+00 -0.45593999997E+02  0.45594000000E+02  0.51100000000E-03 0. -1.
    9900012    2    1    2    0    0  0.47266912736E+01  0.39654158427E+02  0.20840336090E+02  0.46142317640E+02  0.99999988948E+01 0.  0.
        -12    1    1    2    0    0 -0.47266912736E+01 -0.39654158427E+02 -0.20840336090E+02  0.45045682360E+02  0.00000000000E+00 0.  1.
         11    1    3    3    0    0  0.29843479107E+01  0.23622896894E+02  0.76627040836E+01  0.25013288953E+02  0.51100000000E-03 0. -1.
        -11    1    3    3    0    0  0.11708619516E+01  0.18576924353E+01  0.27731457698E+01  0.35372696555E+01  0.51100000000E-03 0.  1.
         12    1    3    3    0    0  0.57148141128E+00  0.14173569097E+02  0.10404486237E+02  0.17591759031E+02  0.00000000000E+00 0. -1.
</event>
<event>
 7    1  0.4119299E-008  0.4614232E+02  0.7816164E-02  0.1320468E+00
        -11   -1    0    0    0    0  0.00000000000E+00  0.00000000000E+00  0.45593999997E+02  0.45594000000E+02  0.51100000000E-03 0.  1.
         11   -1    0    0    0    0 -0.00000000000E+00 -0.00000000000E+00 -0.45593999997E+02  0.45594000000E+02  0.51100000000E-03 0. -1.
    9900012    2    1    2    0    0 -0.28395920748E+02  0.14951949595E+02 -0.31610507860E+02  0.46142319642E+02  0.10000017148E+02 0.  0.
        -12    1    1    2    0    0  0.28395920748E+02 -0.14951949595E+02  0.31610507860E+02  0.45045680358E+02  0.00000000000E+00 0.  1.
         11    1    3    3    0    0 -0.34703604612E+01  0.41867862909E+01 -0.78176384865E+01  0.95230275093E+01  0.51100000000E-03 0. -1.
        -11    1    3    3    0    0 -0.39074385475E+01  0.24313560512E+01 -0.14324925859E+01  0.48199173769E+01  0.51100000000E-03 0.  1.
         12    1    3    3    0    0 -0.21018121739E+02  0.83338072525E+01 -0.22360376787E+02  0.31799374755E+02  0.00000000000E+00 0. -1.
</event>
<event>
 7    1  0.4119299E-008  0.4614232E+02  0.7816164E-02  0.1320468E+00
        -11   -1    0    0    0    0  0.00000000000E+00  0.00000000000E+00  0.45593999997E+02  0.45594000000E+02  0.51100000000E-03 0.  1.
         11   -1    0    0    0    0 -0.00000000000E+00 -0.00000000000E+00 -0.45593999997E+02  0.45594000000E+02  0.51100000000E-03 0. -1.
    9900012    2    1    2    0    0  0.15572714785E+02 -0.12240245402E+02 -0.40457143478E+02  0.46142317502E+02  0.99999976407E+01 0.  0.
        -12    1    1    2    0    0 -0.15572714785E+02  0.12240245402E+02  0.40457143478E+02  0.45045682498E+02  0.00000000000E+00 0.  1.
         11    1    3    3    0    0  0.43831294647E+01 -0.51695869384E+01 -0.16116601146E+02  0.17483743471E+02  0.51100000000E-03 0. -1.
        -11    1    3    3    0    0  0.34171894629E+00 -0.12379283289E+01  0.10197475529E+00  0.12882691868E+01  0.51100000000E-03 0.  1.
        -12    1    3    3    0    0  0.10847866374E+02 -0.58327301345E+01 -0.24442517087E+02  0.27370304844E+02  0.00000000000E+00 0.  1.
</event>
<event>
 7    1  0.4119299E-008  0.4614232E+02  0.7816164E-02  0.1320468E+00
        -11   -1    0    0    0    0  0.00000000000E+00  0.00000000000E+00  0.45593999997E+02  0.45594000000E+02  0.51100000000E-03 0.  1.
         11   -1    0    0    0    0 -0.00000000000E+00 -0.00000000000E+00 -0.45593999997E+02  0.45594000000E+02  0.51100000000E-03 0. -1.
    9900012    2    1    2    0    0  0.40393979178E+02  0.12164208677E+02 -0.15794674518E+02  0.46142320189E+02  0.10000022138E+02 0.  0.
        -12    1    1    2    0    0 -0.40393979178E+02 -0.12164208677E+02  0.15794674518E+02  0.45045679811E+02  0.00000000000E+00 0.  1.
         11    1    3    3    0    0  0.83113642319E+01  0.14553837264E+01 -0.43067041660E+01  0.94733636171E+01  0.51100000000E-03 0. -1.
        -11    1    3    3    0    0  0.23541254495E+02  0.11317123401E+02 -0.10045313255E+02  0.27985286561E+02  0.51100000000E-03 0.  1.
         12    1    3    3    0    0  0.85413604505E+01 -0.60829845052E+00 -0.14426570975E+01  0.86836700105E+01  0.00000000000E+00 0. -1.
</event>
<event>
 7    1  0.4119299E-008  0.4614232E+02  0.7816164E-02  0.1320468E+00
        -11   -1    0    0    0    0  0.00000000000E+00  0.00000000000E+00  0.45593999997E+02  0.45594000000E+02  0.51100000000E-03 0.  1.
         11   -1    0    0    0    0 -0.00000000000E+00 -0.00000000000E+00 -0.45593999997E+02  0.45594000000E+02  0.51100000000E-03 0. -1.
    9900012    2    1    2    0    0  0.91739087737E+01  0.65002009514E+01 -0.43619952954E+02  0.46142317517E+02  0.99999977766E+01 0.  0.
        -12    1    1    2    0    0 -0.91739087737E+01 -0.65002009514E+01  0.43619952954E+02  0.45045682483E+02  0.00000000000E+00 0.  1.
         11    1    3    3    0    0  0.19942843012E+01  0.24031590483E+01 -0.75140291183E+01  0.81371356839E+01  0.51100000000E-03 0. -1.
        -11    1    3    3    0    0 -0.73121718015E+00  0.20826691076E+01 -0.18113426663E+02  0.18247422144E+02  0.51100000000E-03 0.  1.
         12    1    3    3    0    0  0.79108416527E+01  0.20143727955E+01 -0.17992497173E+02  0.19757759689E+02  0.00000000000E+00 0. -1.
</event>
<event>
 7    1  0.4119299E-008  0.4614232E+02  0.7816164E-02  0.1320468E+00
        -11   -1    0    0    0    0  0.00000000000E+00  0.00000000000E+00  0.45593999997E+02  0.45594000000E+02  0.51100000000E-03 0.  1.
         11   -1    0    0    0    0 -0.00000000000E+00 -0.00000000000E+00 -0.45593999997E+02  0.45594000000E+02  0.51100000000E-03 0. -1.
    9900012    2    1    2    0    0  0.40960877941E+02  0.13697383230E+02 -0.12794595550E+02  0.46142317584E+02  0.99999983894E+01 0.  0.
        -12    1    1    2    0    0 -0.40960877941E+02 -0.13697383230E+02  0.12794595550E+02  0.45045682416E+02  0.00000000000E+00 0.  1.
         11    1    3    3    0    0  0.22709467716E+02  0.96010435331E+01 -0.89311007731E+01  0.26223358331E+02  0.51100000000E-03 0. -1.
        -11    1    3    3    0    0  0.16019436692E+01  0.16528781153E+01 -0.18851910609E+01  0.29752605232E+01  0.51100000000E-03 0.  1.
        -12    1    3    3    0    0  0.16649466555E+02  0.24434615811E+01 -0.19783037155E+01  0.16943698730E+02  0.00000000000E+00 0.  1.
</event>
<event>
 7    1  0.4119299E-008  0.4614232E+02  0.7816164E-02  0.1320468E+00
        -11   -1    0    0    0    0  0.00000000000E+00  0.00000000000E+00  0.45593999997E+02  0.45594000000E+02  0.51100000000E-03 0. -1.
         11   -1    0    0    0    0 -0.00000000000E+00 -0.00000000000E+00 -0.45593999997E+02  0.45594000000E+02  0.51100000000E-03 0.  1.
    9900012    2    1    2    0    0  0.34816129863E+02  0.28365897823E+02 -0.35109128632E+01  0.46142316887E+02  0.99999920335E+01 0.  0.
        -12    1    1    2    0    0 -0.34816129863E+02 -0.28365897823E+02  0.35109128632E+01  0.45045683113E+02  0.00000000000E+00 0.  1.
         11    1    3    3    0    0  0.21543017724E+02  0.18078285728E+02 -0.62104177438E+00  0.28130263430E+02  0.51100000000E-03 0. -1.
        -11    1    3    3    0    0  0.12007884382E+02  0.70330003274E+01 -0.79197315990E+00  0.13938421815E+02  0.51100000000E-03 0.  1.
        -12    1    3    3    0    0  0.12652277566E+01  0.32546117680E+01 -0.20978979289E+01  0.40736316423E+01  0.00000000000E+00 0.  1.
</event>
<event>
 7    1  0.4119299E-008  0.4614232E+02  0.7816164E-02  0.1320468E+00
        -11   -1    0    0    0    0  0.00000000000E+00  0.00000000000E+00  0.45593999997E+02  0.45594000000E+02  0.51100000000E-03 0.  1.
         11   -1    0    0    0    0 -0.00000000000E+00 -0.00000000000E+00 -0.45593999997E+02  0.45594000000E+02  0.51100000000E-03 0. -1.
    9900012    2    1    2    0    0  0.19712173234E+02 -0.37752020004E+01 -0.40327307557E+02  0.46142315872E+02  0.99999827744E+01 0.  0.
        -12    1    1    2    0    0 -0.19712173234E+02  0.37752020004E+01  0.40327307557E+02  0.45045684128E+02  0.00000000000E+00 0.  1.
         11    1    3    3    0    0  0.16754302582E+01 -0.12675738065E+00 -0.12538401102E+02  0.12650479692E+02  0.51100000000E-03 0. -1.
        -11    1    3    3    0    0  0.18218335784E+01 -0.61625314586E+00 -0.14297701762E+01  0.23964741904E+01  0.51100000000E-03 0.  1.
         12    1    3    3    0    0  0.16214909397E+02 -0.30321914739E+01 -0.26359136279E+02  0.31095361990E+02  0.00000000000E+00 0. -1.
</event>
<event>
 7    1  0.4196145E-008  0.4614232E+02  0.7816164E-02  0.1320468E+00
        -11   -1    0    0    0    0  0.00000000000E+00  0.00000000000E+00  0.45593999997E+02  0.45594000000E+02  0.51100000000E-03 0. -1.
         11   -1    0    0    0    0 -0.00000000000E+00 -0.00000000000E+00 -0.45593999997E+02  0.45594000000E+02  0.51100000000E-03 0.  1.
    9900012    2    1    2    0    0 -0.77718057974E+01  0.42097619210E+02  0.14017952544E+02  0.46142317610E+02  0.99999986205E+01 0.  0.
        -12    1    1    2    0    0  0.77718057974E+01 -0.42097619210E+02 -0.14017952544E+02  0.45045682390E+02  0.00000000000E+00 0.  1.
         11    1    3    3    0    0  0.30585647572E+00  0.33969591195E-01  0.22016490414E+00  0.37838467596E+00  0.51100000000E-03 0. -1.
        -11    1    3    3    0    0  0.61484715330E+00  0.80143066484E+01  0.52415975663E+01  0.95959102426E+01  0.51100000000E-03 0.  1.
         12    1    3    3    0    0 -0.86925094265E+01  0.34049342970E+02  0.85561900736E+01  0.36168022691E+02  0.00000000000E+00 0. -1.
</event>
<event>
 7    1  0.4119299E-008  0.4614232E+02  0.7816164E-02  0.1320468E+00
        -11   -1    0    0    0    0  0.00000000000E+00  0.00000000000E+00  0.45593999997E+02  0.45594000000E+02  0.51100000000E-03 0.  1.
         11   -1    0    0    0    0 -0.00000000000E+00 -0.00000000000E+00 -0.45593999997E+02  0.45594000000E+02  0.51100000000E-03 0. -1.
    9900012    2    1    2    0    0  0.21269078433E+02 -0.19107962734E+02 -0.34808412384E+02  0.46142317522E+02  0.99999978185E+01 0.  0.
        -12    1    1    2    0    0 -0.21269078433E+02  0.19107962734E+02  0.34808412384E+02  0.45045682478E+02  0.00000000000E+00 0.  1.
         11    1    3    3    0    0  0.18061562162E+01 -0.90350824549E+00 -0.43777256678E+01  0.48211004668E+01  0.51100000000E-03 0. -1.
        -11    1    3    3    0    0  0.33079021323E+01 -0.49054924353E+01 -0.12239681161E+02  0.13594699987E+02  0.51100000000E-03 0.  1.
         12    1    3    3    0    0  0.16155020085E+02 -0.13298962053E+02 -0.18191005555E+02  0.27726517068E+02  0.00000000000E+00 0. -1.
</event>
<event>
 7    1  0.4119299E-008  0.4614232E+02  0.7816164E-02  0.1320468E+00
        -11   -1    0    0    0    0  0.00000000000E+00  0.00000000000E+00  0.45593999997E+02  0.45594000000E+02  0.51100000000E-03 0. -1.
         11   -1    0    0    0    0 -0.00000000000E+00 -0.00000000000E+00 -0.45593999997E+02  0.45594000000E+02  0.51100000000E-03 0.  1.
    9900012    2    1    2    0    0  0.17164774631E+01 -0.41952010162E+02  0.16315512156E+02  0.46142318870E+02  0.10000010114E+02 0.  0.
        -12    1    1    2    0    0 -0.17164774631E+01  0.41952010162E+02 -0.16315512156E+02  0.45045681130E+02  0.00000000000E+00 0.  1.
         11    1    3    3    0    0  0.78328452174E+00 -0.25116693071E+02  0.73223288565E+01  0.26174000566E+02  0.51100000000E-03 0. -1.
        -11    1    3    3    0    0  0.96509709466E+00 -0.10266932469E+02  0.85311247649E+01  0.13383624499E+02  0.51100000000E-03 0.  1.
        -12    1    3    3    0    0 -0.31904153264E-01 -0.65683846219E+01  0.46205853441E+00  0.65846938050E+01  0.00000000000E+00 0.  1.
</event>
<event>
 7    1  0.4119299E-008  0.4614232E+02  0.7816164E-02  0.1320468E+00
        -11   -1    0    0    0    0  0.00000000000E+00  0.00000000000E+00  0.45593999997E+02  0.45594000000E+02  0.51100000000E-03 0.  1.
         11   -1    0    0    0    0 -0.00000000000E+00 -0.00000000000E+00 -0.45593999997E+02  0.45594000000E+02  0.51100000000E-03 0. -1.
    9900012    2    1    2    0    0  0.53120652275E+01 -0.26559686574E+02 -0.35992755057E+02  0.46142318692E+02  0.10000008489E+02 0.  0.
        -12    1    1    2    0    0 -0.53120652275E+01  0.26559686574E+02  0.35992755057E+02  0.45045681308E+02  0.00000000000E+00 0.  1.
         11    1    3    3    0    0  0.62870973952E+01 -0.15611254116E+02 -0.18487042625E+02  0.25000191880E+02  0.51100000000E-03 0. -1.
        -11    1    3    3    0    0  0.64531815069E+00  0.13021952099E+00 -0.95316533618E+00  0.11584114375E+01  0.51100000000E-03 0.  1.
        -12    1    3    3    0    0 -0.16203503184E+01 -0.11078651979E+02 -0.16552547095E+02  0.19983715375E+02  0.00000000000E+00 0.  1.
</event>
<event>
 7    1  0.4119299E-008  0.4614232E+02  0.7816164E-02  0.1320468E+00
        -11   -1    0    0    0    0  0.00000000000E+00  0.00000000000E+00  0.45593999997E+02  0.45594000000E+02  0.51100000000E-03 0.  1.
         11   -1    0    0    0    0 -0.00000000000E+00 -0.00000000000E+00 -0.45593999997E+02  0.45594000000E+02  0.51100000000E-03 0. -1.
    9900012    2    1    2    0    0 -0.11081284362E+02  0.37840378159E+02 -0.21781282791E+02  0.46142319160E+02  0.10000012753E+02 0.  0.
        -12    1    1    2    0    0  0.11081284362E+02 -0.37840378159E+02  0.21781282791E+02  0.45045680840E+02  0.00000000000E+00 0.  1.
         11    1    3    3    0    0 -0.78163047088E+01  0.23912740413E+02 -0.15290074863E+02  0.29439771788E+02  0.51100000000E-03 0. -1.
        -11    1    3    3    0    0 -0.24770816234E+01  0.25956429313E+01  0.61964425022E-01  0.35884725785E+01  0.51100000000E-03 0.  1.
        -12    1    3    3    0    0 -0.78789803030E+00  0.11331994815E+02 -0.65531723534E+01  0.13114074793E+02  0.00000000000E+00 0.  1.
</event>
<event>
 7    1  0.4119299E-008  0.4614232E+02  0.7816164E-02  0.1320468E+00
        -11   -1    0    0    0    0  0.00000000000E+00  0.00000000000E+00  0.45593999997E+02  0.45594000000E+02  0.51100000000E-03 0.  1.
         11   -1    0    0    0    0 -0.00000000000E+00 -0.00000000000E+00 -0.45593999997E+02  0.45594000000E+02  0.51100000000E-03 0. -1.
    9900012    2    1    2    0    0 -0.12866215941E+02 -0.23127518242E+02 -0.36451225936E+02  0.46142317799E+02  0.10000000349E+02 0.  0.
        -12    1    1    2    0    0  0.12866215941E+02  0.23127518242E+02  0.36451225936E+02  0.45045682201E+02  0.00000000000E+00 0.  1.
         11    1    3    3    0    0 -0.60129710681E+01 -0.12959180086E+02 -0.26514752986E+02  0.30118570613E+02  0.51100000000E-03 0. -1.
        -11    1    3    3    0    0 -0.56449396775E+01 -0.94109849005E+01 -0.95464565399E+01  0.14545336486E+02  0.51100000000E-03 0.  1.
        -12    1    3    3    0    0 -0.12083051959E+01 -0.75735325552E+00 -0.39001640971E+00  0.14784107007E+01  0.00000000000E+00 0.  1.
</event>
<event>
 7    1  0.4119299E-008  0.4614232E+02  0.7816164E-02  0.1320468E+00
        -11   -1    0    0    0    0  0.00000000000E+00  0.00000000000E+00  0.45593999997E+02  0.45594000000E+02  0.51100000000E-03 0.  1.
         11   -1    0    0    0    0 -0.00000000000E+00 -0.00000000000E+00 -0.45593999997E+02  0.45594000000E+02  0.51100000000E-03 0. -1.
    9900012    2    1    2    0    0  0.80385478838E+01 -0.16069943118E+02 -0.41306799265E+02  0.46142323299E+02  0.10000050501E+02 0.  0.
        -12    1    1    2    0    0 -0.80385478838E+01  0.16069943118E+02  0.41306799265E+02  0.45045676701E+02  0.00000000000E+00 0.  1.
         11    1    3    3    0    0  0.13822444993E+01 -0.55890635244E+01 -0.82223074200E+01  0.10037657621E+02  0.51100000000E-03 0. -1.
        -11    1    3    3    0    0 -0.16964494503E+00  0.91124712284E+00 -0.91864610198E+00  0.13050140413E+01  0.51100000000E-03 0.  1.
        -12    1    3    3    0    0  0.68259483295E+01 -0.11392126717E+02 -0.32165845743E+02  0.34799651637E+02  0.00000000000E+00 0.  1.
</event>
<event>
 7    1  0.4119299E-008  0.4614232E+02  0.7816164E-02  0.1320468E+00
        -11   -1    0    0    0    0  0.00000000000E+00  0.00000000000E+00  0.45593999997E+02  0.45594000000E+02  0.51100000000E-03 0. -1.
         11   -1    0    0    0    0 -0.00000000000E+00 -0.00000000000E+00 -0.45593999997E+02  0.45594000000E+02  0.51100000000E-03 0.  1.
    9900012    2    1    2    0    0 -0.35244010878E+02 -0.26972862467E+02 -0.77095980172E+01  0.46142317477E+02  0.99999974058E+01 0.  0.
        -12    1    1    2    0    0  0.35244010878E+02  0.26972862467E+02  0.77095980172E+01  0.45045682523E+02  0.00000000000E+00 0.  1.
         11    1    3    3    0    0 -0.19329478670E+01 -0.23636941460E+01  0.30956254755E+00  0.30690660965E+01  0.51100000000E-03 0. -1.
        -11    1    3    3    0    0 -0.12595188124E+02 -0.11602709312E+02  0.60876562219E+00  0.17135700251E+02  0.51100000000E-03 0.  1.
        -12    1    3    3    0    0 -0.20715874887E+02 -0.13006459009E+02 -0.86279261869E+01  0.25937551129E+02  0.00000000000E+00 0.  1.
</event>
<event>
 7    1  0.4119299E-008  0.4614232E+02  0.7816164E-02  0.1320468E+00
        -11   -1    0    0    0    0  0.00000000000E+00  0.00000000000E+00  0.45593999997E+02  0.45594000000E+02  0.51100000000E-03 0.  1.
         11   -1    0    0    0    0 -0.00000000000E+00 -0.00000000000E+00 -0.45593999997E+02  0.45594000000E+02  0.51100000000E-03 0. -1.
    9900012    2    1    2    0    0  0.12224591746E+02  0.21973933526E+02 -0.37374040463E+02  0.46142319869E+02  0.10000019220E+02 0.  0.
        -12    1    1    2    0    0 -0.12224591746E+02 -0.21973933526E+02  0.37374040463E+02  0.45045680131E+02  0.00000000000E+00 0.  1.
         11    1    3    3    0    0  0.82978628598E+01  0.14503255613E+02 -0.18168313985E+02  0.24683731175E+02  0.51100000000E-03 0. -1.
        -11    1    3    3    0    0  0.96197907359E+00  0.52197864726E+00 -0.35539062689E+00  0.11507250780E+01  0.51100000000E-03 0.  1.
         12    1    3    3    0    0  0.29647498122E+01  0.69486992660E+01 -0.18850335851E+02  0.20307863616E+02  0.00000000000E+00 0. -1.
</event>
<event>
 7    1  0.4119299E-008  0.4614232E+02  0.7816164E-02  0.1320468E+00
        -11   -1    0    0    0    0  0.00000000000E+00  0.00000000000E+00  0.45593999997E+02  0.45594000000E+02  0.51100000000E-03 0.  1.
         11   -1    0    0    0    0 -0.00000000000E+00 -0.00000000000E+00 -0.45593999997E+02  0.45594000000E+02  0.51100000000E-03 0. -1.
    9900012    2    1    2    0    0 -0.18658684220E+01  0.20220746228E+02 -0.40208872109E+02  0.46142318306E+02  0.10000004970E+02 0.  0.
        -12    1    1    2    0    0  0.18658684220E+01 -0.20220746228E+02  0.40208872109E+02  0.45045681694E+02  0.00000000000E+00 0.  1.
         11    1    3    3    0    0 -0.14671486394E+01 -0.43550941444E+00 -0.25529372961E+01  0.29765219097E+01  0.51100000000E-03 0.  1.
        -11    1    3    3    0    0 -0.54069345098E+00  0.10725400842E+02 -0.23873145140E+02  0.26177349594E+02  0.51100000000E-03 0. -1.
         12    1    3    3    0    0  0.14197366836E+00  0.99308548000E+01 -0.13782789673E+02  0.16988446802E+02  0.00000000000E+00 0. -1.
</event>
<event>
 7    1  0.4119299E-008  0.4614232E+02  0.7816164E-02  0.1320468E+00
        -11   -1    0    0    0    0  0.00000000000E+00  0.00000000000E+00  0.45593999997E+02  0.45594000000E+02  0.51100000000E-03 0. -1.
         11   -1    0    0    0    0 -0.00000000000E+00 -0.00000000000E+00 -0.45593999997E+02  0.45594000000E+02  0.51100000000E-03 0.  1.
    9900012    2    1    2    0    0 -0.37686104909E+02 -0.19386252626E+02  0.15265782728E+02  0.46142318560E+02  0.10000007283E+02 0.  0.
        -12    1    1    2    0    0  0.37686104909E+02  0.19386252626E+02 -0.15265782728E+02  0.45045681440E+02  0.00000000000E+00 0.  1.
         11    1    3    3    0    0 -0.97657926444E+01 -0.23965654829E+01  0.94176246359E+00  0.10099561817E+02  0.51100000000E-03 0. -1.
        -11    1    3    3    0    0 -0.53363712255E+01 -0.25185839830E+01  0.47071849285E+01  0.75483583213E+01  0.51100000000E-03 0.  1.
         12    1    3    3    0    0 -0.22583941040E+02 -0.14471103160E+02  0.96168353360E+01  0.28494398422E+02  0.00000000000E+00 0. -1.
</event>
<event>
 7    1  0.4119299E-008  0.4614232E+02  0.7816164E-02  0.1320468E+00
        -11   -1    0    0    0    0  0.00000000000E+00  0.00000000000E+00  0.45593999997E+02  0.45594000000E+02  0.51100000000E-03 0.  1.
         11   -1    0    0    0    0 -0.00000000000E+00 -0.00000000000E+00 -0.45593999997E+02  0.45594000000E+02  0.51100000000E-03 0. -1.
    9900012    2    1    2    0    0 -0.19212356361E+02  0.17780152347E+02 -0.36658762588E+02  0.46142319531E+02  0.10000016138E+02 0.  0.
        -12    1    1    2    0    0  0.19212356361E+02 -0.17780152347E+02  0.36658762588E+02  0.45045680469E+02  0.00000000000E+00 0.  1.
         11    1    3    3    0    0 -0.80114266171E+01  0.39769590725E+01 -0.89643830336E+01  0.12663306177E+02  0.51100000000E-03 0. -1.
        -11    1    3    3    0    0  0.76358767964E+00  0.10577492867E+01 -0.23996594713E+01  0.27313486664E+01  0.51100000000E-03 0.  1.
        -12    1    3    3    0    0 -0.11964517423E+02  0.12745443988E+02 -0.25294720083E+02  0.30747664687E+02  0.00000000000E+00 0.  1.
</event>
<event>
 7    1  0.4119299E-008  0.4614232E+02  0.7816164E-02  0.1320468E+00
        -11   -1    0    0    0    0  0.00000000000E+00  0.00000000000E+00  0.45593999997E+02  0.45594000000E+02  0.51100000000E-03 0.  1.
         11   -1    0    0    0    0 -0.00000000000E+00 -0.00000000000E+00 -0.45593999997E+02  0.45594000000E+02  0.51100000000E-03 0. -1.
    9900012    2    1    2    0    0  0.67244734831E+01  0.18741351445E+02 -0.40406147862E+02  0.46142316714E+02  0.99999904527E+01 0.  0.
        -12    1    1    2    0    0 -0.67244734831E+01 -0.18741351445E+02  0.40406147862E+02  0.45045683286E+02  0.00000000000E+00 0.  1.
         11    1    3    3    0    0  0.75417233631E+00  0.66756575883E+01 -0.11106786169E+02  0.12980519228E+02  0.51100000000E-03 0. -1.
        -11    1    3    3    0    0  0.82413562392E+00  0.66607281584E+01 -0.72310688561E+01  0.98657415429E+01  0.51100000000E-03 0.  1.
        -12    1    3    3    0    0  0.51461655229E+01  0.54049656985E+01 -0.22068292837E+02  0.23296055943E+02  0.00000000000E+00 0.  1.
</event>
<event>
 7    1  0.4119299E-008  0.4614232E+02  0.7816164E-02  0.1320468E+00
        -11   -1    0    0    0    0  0.00000000000E+00  0.00000000000E+00  0.45593999997E+02  0.45594000000E+02  0.51100000000E-03 0.  1.
         11   -1    0    0    0    0 -0.00000000000E+00 -0.00000000000E+00 -0.45593999997E+02  0.45594000000E+02  0.51100000000E-03 0. -1.
    9900012    2    1    2    0    0  0.16355449239E+02  0.89251381249E+01 -0.41011636606E+02  0.46142321545E+02  0.10000034506E+02 0.  0.
        -12    1    1    2    0    0 -0.16355449239E+02 -0.89251381249E+01  0.41011636606E+02  0.45045678455E+02  0.00000000000E+00 0.  1.
         11    1    3    3    0    0  0.52785830524E+01 -0.55130502565E+00 -0.12477357485E+02  0.13559197113E+02  0.51100000000E-03 0. -1.
        -11    1    3    3    0    0  0.16079851895E+01  0.26527358012E+01 -0.11660954585E+02  0.12066502629E+02  0.51100000000E-03 0.  1.
         12    1    3    3    0    0  0.94688809976E+01  0.68237073493E+01 -0.16873324535E+02  0.20516621803E+02  0.00000000000E+00 0. -1.
</event>
<event>
 7    1  0.4119299E-008  0.4614233E+02  0.7816164E-02  0.1320468E+00
        -11   -1    0    0    0    0  0.00000000000E+00  0.00000000000E+00  0.45593999997E+02  0.45594000000E+02  0.51100000000E-03 0.  1.
         11   -1    0    0    0    0 -0.00000000000E+00 -0.00000000000E+00 -0.45593999997E+02  0.45594000000E+02  0.51100000000E-03 0. -1.
    9900012    2    1    2    0    0 -0.98201802202E+01  0.11729852025E+02 -0.42368463113E+02  0.46142333897E+02  0.10000147141E+02 0.  0.
        -12    1    1    2    0    0  0.98201802202E+01 -0.11729852025E+02  0.42368463113E+02  0.45045666103E+02  0.00000000000E+00 0.  1.
         11    1    3    3    0    0 -0.22751846166E+01  0.46566577849E+01 -0.22553573298E+02  0.23141404355E+02  0.51100000000E-03 0. -1.
        -11    1    3    3    0    0 -0.23109549231E+00 -0.46329685607E+00  0.60782159178E-01  0.52129054797E+00  0.51100000000E-03 0.  1.
        -12    1    3    3    0    0 -0.73139001113E+01  0.75364910960E+01 -0.19875671974E+02  0.22479638994E+02  0.00000000000E+00 0.  1.
</event>
<event>
 7    1  0.4119299E-008  0.4614232E+02  0.7816164E-02  0.1320468E+00
        -11   -1    0    0    0    0  0.00000000000E+00  0.00000000000E+00  0.45593999997E+02  0.45594000000E+02  0.51100000000E-03 0.  1.
         11   -1    0    0    0    0 -0.00000000000E+00 -0.00000000000E+00 -0.45593999997E+02  0.45594000000E+02  0.51100000000E-03 0. -1.
    9900012    2    1    2    0    0 -0.18439983114E+02 -0.13811619751E+02 -0.38708131966E+02  0.46142319878E+02  0.10000019299E+02 0.  0.
        -12    1    1    2    0    0  0.18439983114E+02  0.13811619751E+02  0.38708131966E+02  0.45045680122E+02  0.00000000000E+00 0.  1.
         11    1    3    3    0    0 -0.75812427351E+01 -0.99771818424E+01 -0.16637672313E+02  0.20828623074E+02  0.51100000000E-03 0. -1.
        -11    1    3    3    0    0 -0.38311258162E+01 -0.37524981591E+01 -0.91671117600E+01  0.10620485193E+02  0.51100000000E-03 0.  1.
        -12    1    3    3    0    0 -0.70276145627E+01 -0.81939749375E-01 -0.12903347894E+02  0.14693211610E+02  0.00000000000E+00 0.  1.
</event>
<event>
 7    1  0.4119299E-008  0.4614232E+02  0.7816164E-02  0.1320468E+00
        -11   -1    0    0    0    0  0.00000000000E+00  0.00000000000E+00  0.45593999997E+02  0.45594000000E+02  0.51100000000E-03 0.  1.
         11   -1    0    0    0    0 -0.00000000000E+00 -0.00000000000E+00 -0.45593999997E+02  0.45594000000E+02  0.51100000000E-03 0. -1.
    9900012    2    1    2    0    0  0.27795919274E+02 -0.30305214561E+02 -0.18387342966E+02  0.46142317196E+02  0.99999948466E+01 0.  0.
        -12    1    1    2    0    0 -0.27795919274E+02  0.30305214561E+02  0.18387342966E+02  0.45045682804E+02  0.00000000000E+00 0.  1.
         11    1    3    3    0    0  0.13780181643E+02 -0.19029353954E+02 -0.87370391697E+01  0.25066822131E+02  0.51100000000E-03 0. -1.
        -11    1    3    3    0    0  0.30039717720E+00 -0.23540688255E+01 -0.11400967885E+01  0.26328120798E+01  0.51100000000E-03 0.  1.
         12    1    3    3    0    0  0.13715340455E+02 -0.89217917816E+01 -0.85102070081E+01  0.18442682985E+02  0.00000000000E+00 0. -1.
</event>
<event>
 7    1  0.4119299E-008  0.4614232E+02  0.7816164E-02  0.1320468E+00
        -11   -1    0    0    0    0  0.00000000000E+00  0.00000000000E+00  0.45593999997E+02  0.45594000000E+02  0.51100000000E-03 0.  1.
         11   -1    0    0    0    0 -0.00000000000E+00 -0.00000000000E+00 -0.45593999997E+02  0.45594000000E+02  0.51100000000E-03 0. -1.
    9900012    2    1    2    0    0 -0.31996718947E+02  0.25876492345E+02 -0.18322953496E+02  0.46142317585E+02  0.99999983945E+01 0.  0.
        -12    1    1    2    0    0  0.31996718947E+02 -0.25876492345E+02  0.18322953496E+02  0.45045682415E+02  0.00000000000E+00 0.  1.
         11    1    3    3    0    0 -0.10104580139E+02  0.70558774614E+01 -0.53529165716E+01  0.13436579275E+02  0.51100000000E-03 0. -1.
        -11    1    3    3    0    0 -0.15087133578E+01  0.29905821712E+00 -0.30794352767E+01  0.34421757214E+01  0.51100000000E-03 0.  1.
         12    1    3    3    0    0 -0.20383425450E+02  0.18521556666E+02 -0.98906016473E+01  0.29263562588E+02  0.00000000000E+00 0. -1.
</event>
<event>
 7    1  0.4119299E-008  0.4614232E+02  0.7816164E-02  0.1320468E+00
        -11   -1    0    0    0    0  0.00000000000E+00  0.00000000000E+00  0.45593999997E+02  0.45594000000E+02  0.51100000000E-03 0.  1.
         11   -1    0    0    0    0 -0.00000000000E+00 -0.00000000000E+00 -0.45593999997E+02  0.45594000000E+02  0.51100000000E-03 0. -1.
    9900012    2    1    2    0    0 -0.99568716741E+01  0.39303084124E+02 -0.19627576385E+02  0.46142317966E+02  0.10000001866E+02 0.  0.
        -12    1    1    2    0    0  0.99568716741E+01 -0.39303084124E+02  0.19627576385E+02  0.45045682034E+02  0.00000000000E+00 0.  1.
         11    1    3    3    0    0 -0.35309787732E+01  0.26338862390E+02 -0.10259584498E+02  0.28486181868E+02  0.51100000000E-03 0.  1.
        -11    1    3    3    0    0 -0.22272298857E+01  0.81288579626E+01 -0.41457069204E+01  0.93928574391E+01  0.51100000000E-03 0. -1.
        -12    1    3    3    0    0 -0.41986630152E+01  0.48353637718E+01 -0.52222849668E+01  0.82632786589E+01  0.00000000000E+00 0.  1.
</event>
<event>
 7    1  0.4119299E-008  0.4614232E+02  0.7816164E-02  0.1320468E+00
        -11   -1    0    0    0    0  0.00000000000E+00  0.00000000000E+00  0.45593999997E+02  0.45594000000E+02  0.51100000000E-03 0. -1.
         11   -1    0    0    0    0 -0.00000000000E+00 -0.00000000000E+00 -0.45593999997E+02  0.45594000000E+02  0.51100000000E-03 0.  1.
    9900012    2    1    2    0    0  0.89741050212E+00  0.24936973642E+02  0.37502739783E+02  0.46142317729E+02  0.99999997070E+01 0.  0.
        -12    1    1    2    0    0 -0.89741050212E+00 -0.24936973642E+02 -0.37502739783E+02  0.45045682271E+02  0.00000000000E+00 0.  1.
         11    1    3    3    0    0 -0.60178088902E+00  0.12533488328E+02  0.20460923685E+02  0.24002080498E+02  0.51100000000E-03 0. -1.
        -11    1    3    3    0    0  0.34471115467E+01  0.80881882572E+01  0.13936725371E+02  0.16478279085E+02  0.51100000000E-03 0.  1.
        -12    1    3    3    0    0 -0.19479201556E+01  0.43152970568E+01  0.31050907270E+01  0.56619581457E+01  0.00000000000E+00 0.  1.
</event>
<event>
 7    1  0.4119299E-008  0.4614232E+02  0.7816164E-02  0.1320468E+00
        -11   -1    0    0    0    0  0.00000000000E+00  0.00000000000E+00  0.45593999997E+02  0.45594000000E+02  0.51100000000E-03 0.  1.
         11   -1    0    0    0    0 -0.00000000000E+00 -0.00000000000E+00 -0.45593999997E+02  0.45594000000E+02  0.51100000000E-03 0. -1.
    9900012    2    1    2    0    0 -0.10965128551E+02  0.28004438803E+02 -0.33535518618E+02  0.46142316014E+02  0.99999840690E+01 0.  0.
        -12    1    1    2    0    0  0.10965128551E+02 -0.28004438803E+02  0.33535518618E+02  0.45045683986E+02  0.00000000000E+00 0.  1.
         11    1    3    3    0    0 -0.46282335579E+01  0.12295156208E+02 -0.21026631312E+02  0.24793358720E+02  0.51100000000E-03 0. -1.
        -11    1    3    3    0    0 -0.42906264454E+01  0.60889950503E+01 -0.49363915643E+01  0.89360672532E+01  0.51100000000E-03 0.  1.
         12    1    3    3    0    0 -0.20462685479E+01  0.96202875439E+01 -0.75724957418E+01  0.12412890040E+02  0.00000000000E+00 0. -1.
</event>
<event>
 7    1  0.4119299E-008  0.4614232E+02  0.7816164E-02  0.1320468E+00
        -11   -1    0    0    0    0  0.00000000000E+00  0.00000000000E+00  0.45593999997E+02  0.45594000000E+02  0.51100000000E-03 0.  1.
         11   -1    0    0    0    0 -0.00000000000E+00 -0.00000000000E+00 -0.45593999997E+02  0.45594000000E+02  0.51100000000E-03 0. -1.
    9900012    2    1    2    0    0 -0.39397020644E+02  0.48879625926E+01 -0.21286053800E+02  0.46142317628E+02  0.99999987896E+01 0.  0.
        -12    1    1    2    0    0  0.39397020644E+02 -0.48879625926E+01  0.21286053800E+02  0.45045682372E+02  0.00000000000E+00 0.  1.
         11    1    3    3    0    0 -0.89796844017E+01 -0.18147208929E+01 -0.58362448276E+01  0.10862306285E+02  0.51100000000E-03 0. -1.
        -11    1    3    3    0    0 -0.37789312245E+01  0.19444128679E+00  0.42960884099E-01  0.37841742180E+01  0.51100000000E-03 0.  1.
        -12    1    3    3    0    0 -0.26638405018E+02  0.65082421987E+01 -0.15492769857E+02  0.31495837126E+02  0.00000000000E+00 0.  1.
</event>
<event>
 7    1  0.4119299E-008  0.4614232E+02  0.7816164E-02  0.1320468E+00
        -11   -1    0    0    0    0  0.00000000000E+00  0.00000000000E+00  0.45593999997E+02  0.45594000000E+02  0.51100000000E-03 0. -1.
         11   -1    0    0    0    0 -0.00000000000E+00 -0.00000000000E+00 -0.45593999997E+02  0.45594000000E+02  0.51100000000E-03 0.  1.
    9900012    2    1    2    0    0  0.78341591884E+01  0.40940212773E+02  0.17077423252E+02  0.46142318110E+02  0.10000003179E+02 0.  0.
        -12    1    1    2    0    0 -0.78341591884E+01 -0.40940212773E+02 -0.17077423252E+02  0.45045681890E+02  0.00000000000E+00 0.  1.
         11    1    3    3    0    0  0.36874998476E+01  0.18836282399E+02  0.11333619941E+02  0.22290225009E+02  0.51100000000E-03 0. -1.
        -11    1    3    3    0    0  0.14799198030E+01  0.15558868479E+02  0.60959274370E+01  0.16775842231E+02  0.51100000000E-03 0.  1.
         12    1    3    3    0    0  0.26667395378E+01  0.65450618946E+01 -0.35212412702E+00  0.70762508694E+01  0.00000000000E+00 0. -1.
</event>
<event>
 7    1  0.4119299E-008  0.4614232E+02  0.7816164E-02  0.1320468E+00
        -11   -1    0    0    0    0  0.00000000000E+00  0.00000000000E+00  0.45593999997E+02  0.45594000000E+02  0.51100000000E-03 0.  1.
         11   -1    0    0    0    0 -0.00000000000E+00 -0.00000000000E+00 -0.45593999997E+02  0.45594000000E+02  0.51100000000E-03 0. -1.
    9900012    2    1    2    0    0  0.54629265805E+01  0.19063269082E+02 -0.40445789280E+02  0.46142315797E+02  0.99999820859E+01 0.  0.
        -12    1    1    2    0    0 -0.54629265805E+01 -0.19063269082E+02  0.40445789280E+02  0.45045684203E+02  0.00000000000E+00 0.  1.
         11    1    3    3    0    0  0.55797418687E+01  0.69728715019E+01 -0.15035889493E+02  0.17488065342E+02  0.51100000000E-03 0. -1.
        -11    1    3    3    0    0  0.51954261388E+00  0.40710041620E+01 -0.37905699783E+01  0.55867182170E+01  0.51100000000E-03 0.  1.
        -12    1    3    3    0    0 -0.63635790203E+00  0.80193934179E+01 -0.21619329808E+02  0.23067532237E+02  0.00000000000E+00 0.  1.
</event>
<event>
 7    1  0.4119299E-008  0.4614232E+02  0.7816164E-02  0.1320468E+00
        -11   -1    0    0    0    0  0.00000000000E+00  0.00000000000E+00  0.45593999997E+02  0.45594000000E+02  0.51100000000E-03 0. -1.
         11   -1    0    0    0    0 -0.00000000000E+00 -0.00000000000E+00 -0.45593999997E+02  0.45594000000E+02  0.51100000000E-03 0.  1.
    9900012    2    1    2    0    0 -0.48586605302E+01  0.13498232256E+02  0.42700171820E+02  0.46142317303E+02  0.99999958219E+01 0.  0.
        -12    1    1    2    0    0  0.48586605302E+01 -0.13498232256E+02 -0.42700171820E+02  0.45045682697E+02  0.00000000000E+00 0.  1.
         11    1    3    3    0    0 -0.12903545808E+00  0.15745876462E+01  0.12280895674E+02  0.12382098983E+02  0.51100000000E-03 0. -1.
        -11    1    3    3    0    0 -0.33516944586E+00 -0.24748132729E+00  0.69293417139E+01  0.69418558336E+01  0.51100000000E-03 0.  1.
        -12    1    3    3    0    0 -0.43944556262E+01  0.12171125938E+02  0.23489934432E+02  0.26818362487E+02  0.00000000000E+00 0.  1.
</event>
<event>
 7    1  0.4119299E-008  0.4614232E+02  0.7816164E-02  0.1320468E+00
        -11   -1    0    0    0    0  0.00000000000E+00  0.00000000000E+00  0.45593999997E+02  0.45594000000E+02  0.51100000000E-03 0. -1.
         11   -1    0    0    0    0 -0.00000000000E+00 -0.00000000000E+00 -0.45593999997E+02  0.45594000000E+02  0.51100000000E-03 0.  1.
    9900012    2    1    2    0    0 -0.30684480973E+02 -0.32152948224E+02 -0.73323907519E+01  0.46142318673E+02  0.10000008315E+02 0.  0.
        -12    1    1    2    0    0  0.30684480973E+02  0.32152948224E+02  0.73323907519E+01  0.45045681327E+02  0.00000000000E+00 0.  1.
         11    1    3    3    0    0 -0.26639916103E+01 -0.32671812585E+01 -0.12358003645E+01  0.43930089321E+01  0.51100000000E-03 0. -1.
        -11    1    3    3    0    0 -0.13520064381E+02 -0.20182022591E+02 -0.21804041652E+01  0.24389758902E+02  0.51100000000E-03 0.  1.
        -12    1    3    3    0    0 -0.14500424982E+02 -0.87037443750E+01 -0.39161862222E+01  0.17359550839E+02  0.00000000000E+00 0.  1.
</event>
<event>
 7    1  0.4119299E-008  0.4614232E+02  0.7816164E-02  0.1320468E+00
        -11   -1    0    0    0    0  0.00000000000E+00  0.00000000000E+00  0.45593999997E+02  0.45594000000E+02  0.51100000000E-03 0.  1.
         11   -1    0    0    0    0 -0.00000000000E+00 -0.00000000000E+00 -0.45593999997E+02  0.45594000000E+02  0.51100000000E-03 0. -1.
    9900012    2    1    2    0    0 -0.26976961589E+02  0.10881284652E+02 -0.34394110640E+02  0.46142315868E+02  0.99999827343E+01 0.  0.
        -12    1    1    2    0    0  0.26976961589E+02 -0.10881284652E+02  0.34394110640E+02  0.45045684132E+02  0.00000000000E+00 0.  1.
         11    1    3    3    0    0 -0.12964759585E+02  0.57040774958E+01 -0.22399998849E+02  0.26502479882E+02  0.51100000000E-03 0. -1.
        -11    1    3    3    0    0 -0.21820487195E+01  0.54245334565E+00 -0.41156620806E+01  0.46898045662E+01  0.51100000000E-03 0.  1.
        -12    1    3    3    0    0 -0.11830153285E+02  0.46347538106E+01 -0.78784497099E+01  0.14950031420E+02  0.00000000000E+00 0.  1.
</event>
<event>
 7    1  0.4119299E-008  0.4614232E+02  0.7816164E-02  0.1320468E+00
        -11   -1    0    0    0    0  0.00000000000E+00  0.00000000000E+00  0.45593999997E+02  0.45594000000E+02  0.51100000000E-03 0.  1.
         11   -1    0    0    0    0 -0.00000000000E+00 -0.00000000000E+00 -0.45593999997E+02  0.45594000000E+02  0.51100000000E-03 0. -1.
    9900012    2    1    2    0    0 -0.26750754236E+02 -0.26591835111E+02 -0.24624884531E+02  0.46142317800E+02  0.10000000352E+02 0.  0.
        -12    1    1    2    0    0  0.26750754236E+02  0.26591835111E+02  0.24624884531E+02  0.45045682200E+02  0.00000000000E+00 0.  1.
         11    1    3    3    0    0 -0.29814914724E+01 -0.47988505792E+01 -0.75707611340E+01  0.94464111011E+01  0.51100000000E-03 0. -1.
        -11    1    3    3    0    0 -0.10991228332E+02 -0.95673055233E+01 -0.55200923047E+01  0.15582421331E+02  0.51100000000E-03 0.  1.
         12    1    3    3    0    0 -0.12778034431E+02 -0.12225679008E+02 -0.11534031092E+02  0.21113485367E+02  0.00000000000E+00 0. -1.
</event>
<event>
 7    1  0.4119299E-008  0.4614232E+02  0.7816164E-02  0.1320468E+00
        -11   -1    0    0    0    0  0.00000000000E+00  0.00000000000E+00  0.45593999997E+02  0.45594000000E+02  0.51100000000E-03 0. -1.
         11   -1    0    0    0    0 -0.00000000000E+00 -0.00000000000E+00 -0.45593999997E+02  0.45594000000E+02  0.51100000000E-03 0.  1.
    9900012    2    1    2    0    0  0.21962366752E+02 -0.37116191584E+02 -0.13006009215E+02  0.46142317557E+02  0.99999981355E+01 0.  0.
        -12    1    1    2    0    0 -0.21962366752E+02  0.37116191584E+02  0.13006009215E+02  0.45045682443E+02  0.00000000000E+00 0.  1.
         11    1    3    3    0    0  0.10531410529E+02 -0.21775453878E+02 -0.98055709565E+01  0.26100387379E+02  0.51100000000E-03 0. -1.
        -11    1    3    3    0    0  0.77694256269E+01 -0.13438255112E+02 -0.34740093897E+01  0.15906584062E+02  0.51100000000E-03 0.  1.
        -12    1    3    3    0    0  0.36615305958E+01 -0.19024825949E+01  0.27357113098E+00  0.41353461150E+01  0.00000000000E+00 0.  1.
</event>
<event>
 7    1  0.4119299E-008  0.4614232E+02  0.7816164E-02  0.1320468E+00
        -11   -1    0    0    0    0  0.00000000000E+00  0.00000000000E+00  0.45593999997E+02  0.45594000000E+02  0.51100000000E-03 0.  1.
         11   -1    0    0    0    0 -0.00000000000E+00 -0.00000000000E+00 -0.45593999997E+02  0.45594000000E+02  0.51100000000E-03 0. -1.
    9900012    2    1    2    0    0  0.29112070556E+02 -0.11634014982E+01 -0.34354727639E+02  0.46142318007E+02  0.10000002239E+02 0.  0.
        -12    1    1    2    0    0 -0.29112070556E+02  0.11634014982E+01  0.34354727639E+02  0.45045681993E+02  0.00000000000E+00 0.  1.
         11    1    3    3    0    0  0.14187838687E+02  0.23080740290E+01 -0.14630408243E+02  0.20510261284E+02  0.51100000000E-03 0.  1.
        -11    1    3    3    0    0  0.77874747048E+01  0.11311848643E+01 -0.90900157448E+01  0.12023008275E+02  0.51100000000E-03 0. -1.
        -12    1    3    3    0    0  0.71367571643E+01 -0.46026603915E+01 -0.10634303651E+02  0.13609048448E+02  0.00000000000E+00 0.  1.
</event>
<event>
 7    1  0.4119299E-008  0.4614232E+02  0.7816164E-02  0.1320468E+00
        -11   -1    0    0    0    0  0.00000000000E+00  0.00000000000E+00  0.45593999997E+02  0.45594000000E+02  0.51100000000E-03 0.  1.
         11   -1    0    0    0    0 -0.00000000000E+00 -0.00000000000E+00 -0.45593999997E+02  0.45594000000E+02  0.51100000000E-03 0. -1.
    9900012    2    1    2    0    0  0.27407080598E+01  0.47819420555E+01 -0.44707214511E+02  0.46142317856E+02  0.10000000866E+02 0.  0.
        -12    1    1    2    0    0 -0.27407080598E+01 -0.47819420555E+01  0.44707214511E+02  0.45045682144E+02  0.00000000000E+00 0.  1.
         11    1    3    3    0    0 -0.78661865144E+00  0.48651051922E-01 -0.16697711061E+02  0.16716300152E+02  0.51100000000E-03 0. -1.
        -11    1    3    3    0    0  0.79550251444E+00  0.54991929196E+01 -0.23069855807E+02  0.23729563717E+02  0.51100000000E-03 0.  1.
        -12    1    3    3    0    0  0.27318241968E+01 -0.76590191604E+00 -0.49396476435E+01  0.56964539873E+01  0.00000000000E+00 0.  1.
</event>
<event>
 7    1  0.4119299E-008  0.4614231E+02  0.7816164E-02  0.1320468E+00
        -11   -1    0    0    0    0  0.00000000000E+00  0.00000000000E+00  0.45593999997E+02  0.45594000000E+02  0.51100000000E-03 0.  1.
         11   -1    0    0    0    0 -0.00000000000E+00 -0.00000000000E+00 -0.45593999997E+02  0.45594000000E+02  0.51100000000E-03 0. -1.
    9900012    2    1    2    0    0  0.20992842474E+02  0.17255453966E+02 -0.35925807845E+02  0.46142314347E+02  0.99999688642E+01 0.  0.
        -12    1    1    2    0    0 -0.20992842474E+02 -0.17255453966E+02  0.35925807845E+02  0.45045685653E+02  0.00000000000E+00 0.  1.
         11    1    3    3    0    0  0.78657024536E+00  0.17782429855E+01 -0.33622290365E+01  0.38839960377E+01  0.51100000000E-03 0. -1.
        -11    1    3    3    0    0 -0.57430868452E+00  0.11332707877E+01 -0.33083217186E+00  0.13128531260E+01  0.51100000000E-03 0.  1.
         12    1    3    3    0    0  0.20780580913E+02  0.14343940192E+02 -0.32232746636E+02  0.40945465183E+02  0.00000000000E+00 0. -1.
</event>
<event>
 7    1  0.4119299E-008  0.4614232E+02  0.7816164E-02  0.1320468E+00
        -11   -1    0    0    0    0  0.00000000000E+00  0.00000000000E+00  0.45593999997E+02  0.45594000000E+02  0.51100000000E-03 0. -1.
         11   -1    0    0    0    0 -0.00000000000E+00 -0.00000000000E+00 -0.45593999997E+02  0.45594000000E+02  0.51100000000E-03 0.  1.
    9900012    2    1    2    0    0  0.34659507182E+00 -0.23434074613E+02  0.38468656920E+02  0.46142317117E+02  0.99999941302E+01 0.  0.
        -12    1    1    2    0    0 -0.34659507182E+00  0.23434074613E+02 -0.38468656920E+02  0.45045682883E+02  0.00000000000E+00 0.  1.
         11    1    3    3    0    0 -0.17320975424E+01 -0.60401551246E+01  0.62175569863E+01  0.88397766354E+01  0.51100000000E-03 0. -1.
        -11    1    3    3    0    0 -0.24317348590E+01 -0.56142699374E+01  0.99075881729E+01  0.11644469289E+02  0.51100000000E-03 0.  1.
        -12    1    3    3    0    0  0.45104274732E+01 -0.11779649551E+02  0.22343511761E+02  0.25658071193E+02  0.00000000000E+00 0.  1.
</event>
<event>
 7    1  0.4119299E-008  0.4614232E+02  0.7816164E-02  0.1320468E+00
        -11   -1    0    0    0    0  0.00000000000E+00  0.00000000000E+00  0.45593999997E+02  0.45594000000E+02  0.51100000000E-03 0. -1.
         11   -1    0    0    0    0 -0.00000000000E+00 -0.00000000000E+00 -0.45593999997E+02  0.45594000000E+02  0.51100000000E-03 0.  1.
    9900012    2    1    2    0    0  0.38315232027E+02  0.21729154689E+02 -0.94286948848E+01  0.46142318120E+02  0.10000003275E+02 0.  0.
        -12    1    1    2    0    0 -0.38315232027E+02 -0.21729154689E+02  0.94286948848E+01  0.45045681880E+02  0.00000000000E+00 0.  1.
         11    1    3    3    0    0  0.26040004386E+02  0.12031406501E+02 -0.50379528086E+01  0.29124174488E+02  0.51100000000E-03 0. -1.
        -11    1    3    3    0    0  0.11595111903E+02  0.75300426097E+01 -0.49384518733E+01  0.14681160340E+02  0.51100000000E-03 0.  1.
        -12    1    3    3    0    0  0.68011573770E+00  0.21677055780E+01  0.54770979703E+00  0.23369832929E+01  0.00000000000E+00 0.  1.
</event>
<event>
 7    1  0.4119299E-008  0.4614232E+02  0.7816164E-02  0.1320468E+00
        -11   -1    0    0    0    0  0.00000000000E+00  0.00000000000E+00  0.45593999997E+02  0.45594000000E+02  0.51100000000E-03 0.  1.
         11   -1    0    0    0    0 -0.00000000000E+00 -0.00000000000E+00 -0.45593999997E+02  0.45594000000E+02  0.51100000000E-03 0. -1.
    9900012    2    1    2    0    0  0.22495870997E+02 -0.64171170294E+01 -0.38495062710E+02  0.46142318121E+02  0.10000003281E+02 0.  0.
        -12    1    1    2    0    0 -0.22495870997E+02  0.64171170294E+01  0.38495062710E+02  0.45045681879E+02  0.00000000000E+00 0.  1.
         11    1    3    3    0    0  0.46317024957E+01 -0.31209327759E+01 -0.70416944112E+01  0.89876776668E+01  0.51100000000E-03 0. -1.
        -11    1    3    3    0    0  0.29029566792E+01 -0.19610684843E+01 -0.12440165043E+02  0.12924033954E+02  0.51100000000E-03 0.  1.
         12    1    3    3    0    0  0.14961211823E+02 -0.13351157692E+01 -0.19013203256E+02  0.24230606500E+02  0.00000000000E+00 0. -1.
</event>
<event>
 7    1  0.4119299E-008  0.4614233E+02  0.7816164E-02  0.1320468E+00
        -11   -1    0    0    0    0  0.00000000000E+00  0.00000000000E+00  0.45593999997E+02  0.45594000000E+02  0.51100000000E-03 0. -1.
         11   -1    0    0    0    0 -0.00000000000E+00 -0.00000000000E+00 -0.45593999997E+02  0.45594000000E+02  0.51100000000E-03 0.  1.
    9900012    2    1    2    0    0  0.36128733142E+02 -0.25364297030E+02 -0.89710233659E+01  0.46142332256E+02  0.10000132174E+02 0.  0.
        -12    1    1    2    0    0 -0.36128733142E+02  0.25364297030E+02  0.89710233659E+01  0.45045667744E+02  0.00000000000E+00 0.  1.
         11    1    3    3    0    0  0.12964848338E+02 -0.96751740327E+01 -0.29074071138E+00  0.16179642005E+02  0.51100000000E-03 0. -1.
        -11    1    3    3    0    0  0.14190139199E+02 -0.78882014970E+01 -0.20933289534E+01  0.16369660953E+02  0.51100000000E-03 0.  1.
         12    1    3    3    0    0  0.89737456061E+01 -0.78009214999E+01 -0.65869537012E+01  0.13593029299E+02  0.00000000000E+00 0. -1.
</event>
<event>
 7    1  0.4119299E-008  0.4614232E+02  0.7816164E-02  0.1320468E+00
        -11   -1    0    0    0    0  0.00000000000E+00  0.00000000000E+00  0.45593999997E+02  0.45594000000E+02  0.51100000000E-03 0. -1.
         11   -1    0    0    0    0 -0.00000000000E+00 -0.00000000000E+00 -0.45593999997E+02  0.45594000000E+02  0.51100000000E-03 0.  1.
    9900012    2    1    2    0    0 -0.74251846609E-01  0.44449626026E+02 -0.73033161859E+01  0.46142321023E+02  0.10000029742E+02 0.  0.
        -12    1    1    2    0    0  0.74251846609E-01 -0.44449626026E+02  0.73033161859E+01  0.45045678977E+02  0.00000000000E+00 0.  1.
         11    1    3    3    0    0 -0.41125595185E+00  0.88703084392E+01 -0.32427577148E+01  0.94534110839E+01  0.51100000000E-03 0. -1.
        -11    1    3    3    0    0  0.30144959155E+01  0.22734377701E+02 -0.52096989436E+01  0.23517654611E+02  0.51100000000E-03 0.  1.
        -12    1    3    3    0    0 -0.26774918103E+01  0.12844939886E+02  0.11491404725E+01  0.13171255327E+02  0.00000000000E+00 0.  1.
</event>
<event>
 7    1  0.4119299E-008  0.4614232E+02  0.7816164E-02  0.1320468E+00
        -11   -1    0    0    0    0  0.00000000000E+00  0.00000000000E+00  0.45593999997E+02  0.45594000000E+02  0.51100000000E-03 0.  1.
         11   -1    0    0    0    0 -0.00000000000E+00 -0.00000000000E+00 -0.45593999997E+02  0.45594000000E+02  0.51100000000E-03 0. -1.
    9900012    2    1    2    0    0 -0.16396070549E+02 -0.32308174855E+01 -0.41831141029E+02  0.46142315736E+02  0.99999815310E+01 0.  0.
        -12    1    1    2    0    0  0.16396070549E+02  0.32308174855E+01  0.41831141029E+02  0.45045684264E+02  0.00000000000E+00 0.  1.
         11    1    3    3    0    0 -0.97527647677E+01 -0.28553004474E+01 -0.33379703990E+02  0.34892317206E+02  0.51100000000E-03 0. -1.
        -11    1    3    3    0    0 -0.37481624109E+01 -0.18416244561E+01 -0.45725203704E+01  0.61925959738E+01  0.51100000000E-03 0.  1.
        -12    1    3    3    0    0 -0.28951433705E+01  0.14661074181E+01 -0.38789166683E+01  0.50574025563E+01  0.00000000000E+00 0.  1.
</event>
<event>
 7    1  0.4119299E-008  0.4614232E+02  0.7816164E-02  0.1320468E+00
        -11   -1    0    0    0    0  0.00000000000E+00  0.00000000000E+00  0.45593999997E+02  0.45594000000E+02  0.51100000000E-03 0.  1.
         11   -1    0    0    0    0 -0.00000000000E+00 -0.00000000000E+00 -0.45593999997E+02  0.45594000000E+02  0.51100000000E-03 0. -1.
    9900012    2    1    2    0    0  0.12728143526E+02 -0.22603107701E+02 -0.36826720789E+02  0.46142317860E+02  0.10000000904E+02 0.  0.
        -12    1    1    2    0    0 -0.12728143526E+02  0.22603107701E+02  0.36826720789E+02  0.45045682140E+02  0.00000000000E+00 0.  1.
         11    1    3    3    0    0 -0.53078794324E+00 -0.47763282998E+01 -0.65210964127E+01  0.81006016167E+01  0.51100000000E-03 0. -1.
        -11    1    3    3    0    0  0.11124965794E+01 -0.47988074050E+01 -0.91020001661E+01  0.10349522136E+02  0.51100000000E-03 0.  1.
         12    1    3    3    0    0  0.12146434890E+02 -0.13027971996E+02 -0.21203624210E+02  0.27692194108E+02  0.00000000000E+00 0. -1.
</event>
<event>
 7    1  0.4119299E-008  0.4614232E+02  0.7816164E-02  0.1320468E+00
        -11   -1    0    0    0    0  0.00000000000E+00  0.00000000000E+00  0.45593999997E+02  0.45594000000E+02  0.51100000000E-03 0. -1.
         11   -1    0    0    0    0 -0.00000000000E+00 -0.00000000000E+00 -0.45593999997E+02  0.45594000000E+02  0.51100000000E-03 0.  1.
    9900012    2    1    2    0    0  0.45444723314E+00 -0.16711849581E+01  0.45012377688E+02  0.46142317337E+02  0.99999961300E+01 0.  0.
        -12    1    1    2    0    0 -0.45444723314E+00  0.16711849581E+01 -0.45012377688E+02  0.45045682663E+02  0.00000000000E+00 0.  1.
         11    1    3    3    0    0  0.23919629979E+00 -0.49692322426E+00  0.44465077044E+01  0.44805779300E+01  0.51100000000E-03 0. -1.
        -11    1    3    3    0    0  0.23116192805E+01  0.13392149436E+01  0.35686264795E+02  0.35786122669E+02  0.51100000000E-03 0.  1.
        -12    1    3    3    0    0 -0.20963683471E+01 -0.25134766774E+01  0.48796051885E+01  0.58756167378E+01  0.00000000000E+00 0.  1.
</event>
<event>
 7    1  0.4119299E-008  0.4614233E+02  0.7816164E-02  0.1320468E+00
        -11   -1    0    0    0    0  0.00000000000E+00  0.00000000000E+00  0.45593999997E+02  0.45594000000E+02  0.51100000000E-03 0.  1.
         11   -1    0    0    0    0 -0.00000000000E+00 -0.00000000000E+00 -0.45593999997E+02  0.45594000000E+02  0.51100000000E-03 0. -1.
    9900012    2    1    2    0    0 -0.23806858383E+02 -0.38035002867E+02 -0.39603527235E+01  0.46142330476E+02  0.10000115943E+02 0.  0.
        -12    1    1    2    0    0  0.23806858383E+02  0.38035002867E+02  0.39603527235E+01  0.45045669524E+02  0.00000000000E+00 0.  1.
         11    1    3    3    0    0 -0.15226119935E+02 -0.24766705428E+02  0.15154574412E+01  0.29112214577E+02  0.51100000000E-03 0. -1.
        -11    1    3    3    0    0 -0.88513524551E+00 -0.19838953007E+00 -0.64179208901E+00  0.11111796232E+01  0.51100000000E-03 0.  1.
        -12    1    3    3    0    0 -0.76956032023E+01 -0.13069907909E+02 -0.48340180757E+01  0.15918936276E+02  0.00000000000E+00 0.  1.
</event>
<event>
 7    1  0.4119299E-008  0.4614232E+02  0.7816164E-02  0.1320468E+00
        -11   -1    0    0    0    0  0.00000000000E+00  0.00000000000E+00  0.45593999997E+02  0.45594000000E+02  0.51100000000E-03 0.  1.
         11   -1    0    0    0    0 -0.00000000000E+00 -0.00000000000E+00 -0.45593999997E+02  0.45594000000E+02  0.51100000000E-03 0. -1.
    9900012    2    1    2    0    0 -0.62764154783E+01 -0.15956897721E+02 -0.41654503207E+02  0.46142316372E+02  0.99999873323E+01 0.  0.
        -12    1    1    2    0    0  0.62764154783E+01  0.15956897721E+02  0.41654503207E+02  0.45045683628E+02  0.00000000000E+00 0.  1.
         11    1    3    3    0    0 -0.61883553415E+01 -0.53818691472E+01 -0.19700279425E+02  0.21339195557E+02  0.51100000000E-03 0.  1.
        -11    1    3    3    0    0  0.68376409439E+00 -0.52863380629E+01 -0.15678835869E+02  0.16560156942E+02  0.51100000000E-03 0. -1.
        -12    1    3    3    0    0 -0.77182423126E+00 -0.52886905107E+01 -0.62753879123E+01  0.82429638730E+01  0.00000000000E+00 0.  1.
</event>
<event>
 7    1  0.4119299E-008  0.4614232E+02  0.7816164E-02  0.1320468E+00
        -11   -1    0    0    0    0  0.00000000000E+00  0.00000000000E+00  0.45593999997E+02  0.45594000000E+02  0.51100000000E-03 0.  1.
         11   -1    0    0    0    0 -0.00000000000E+00 -0.00000000000E+00 -0.45593999997E+02  0.45594000000E+02  0.51100000000E-03 0. -1.
    9900012    2    1    2    0    0 -0.21878464351E+02 -0.39349305820E+02  0.14416325528E+01  0.46142319016E+02  0.10000011446E+02 0.  0.
        -12    1    1    2    0    0  0.21878464351E+02  0.39349305820E+02 -0.14416325528E+01  0.45045680984E+02  0.00000000000E+00 0.  1.
         11    1    3    3    0    0 -0.14658666274E+02 -0.18000190773E+02  0.77745054288E+00  0.23226876552E+02  0.51100000000E-03 0. -1.
        -11    1    3    3    0    0 -0.43308298706E+01 -0.80468779469E+01 -0.10381765780E+01  0.91970725194E+01  0.51100000000E-03 0.  1.
        -12    1    3    3    0    0 -0.28889682069E+01 -0.13302237100E+02  0.17023585879E+01  0.13718369944E+02  0.00000000000E+00 0.  1.
</event>
<event>
 7    1  0.4119299E-008  0.4614232E+02  0.7816164E-02  0.1320468E+00
        -11   -1    0    0    0    0  0.00000000000E+00  0.00000000000E+00  0.45593999997E+02  0.45594000000E+02  0.51100000000E-03 0. -1.
         11   -1    0    0    0    0 -0.00000000000E+00 -0.00000000000E+00 -0.45593999997E+02  0.45594000000E+02  0.51100000000E-03 0.  1.
    9900012    2    1    2    0    0  0.15817981009E+02  0.57862013507E+01  0.41778282270E+02  0.46142317425E+02  0.99999969330E+01 0.  0.
        -12    1    1    2    0    0 -0.15817981009E+02 -0.57862013507E+01 -0.41778282270E+02  0.45045682575E+02  0.00000000000E+00 0.  1.
         11    1    3    3    0    0  0.23077856613E+01  0.17025245932E+01  0.18947491268E+01  0.34372284131E+01  0.51100000000E-03 0. -1.
        -11    1    3    3    0    0  0.52706063506E+01 -0.12881534910E+01  0.13743662316E+02  0.14775888631E+02  0.51100000000E-03 0.  1.
         12    1    3    3    0    0  0.82395889969E+01  0.53718302484E+01  0.26139870827E+02  0.27929200381E+02  0.00000000000E+00 0. -1.
</event>
<event>
 7    1  0.4119299E-008  0.4614232E+02  0.7816164E-02  0.1320468E+00
        -11   -1    0    0    0    0  0.00000000000E+00  0.00000000000E+00  0.45593999997E+02  0.45594000000E+02  0.51100000000E-03 0.  1.
         11   -1    0    0    0    0 -0.00000000000E+00 -0.00000000000E+00 -0.45593999997E+02  0.45594000000E+02  0.51100000000E-03 0. -1.
    9900012    2    1    2    0    0 -0.29730107026E+02  0.19763896465E+02 -0.27470396060E+02  0.46142317333E+02  0.99999960922E+01 0.  0.
        -12    1    1    2    0    0  0.29730107026E+02 -0.19763896465E+02  0.27470396060E+02  0.45045682667E+02  0.00000000000E+00 0.  1.
         11    1    3    3    0    0 -0.57249166354E+01  0.52236078519E+01 -0.71303869675E+01  0.10531057309E+02  0.51100000000E-03 0. -1.
        -11    1    3    3    0    0 -0.31953287243E+01  0.18937403853E+01 -0.68012076343E+01  0.77493744167E+01  0.51100000000E-03 0.  1.
        -12    1    3    3    0    0 -0.20809861666E+02  0.12646548228E+02 -0.13538801459E+02  0.27861885607E+02  0.00000000000E+00 0.  1.
</event>
<event>
 7    1  0.4119299E-008  0.4614232E+02  0.7816164E-02  0.1320468E+00
        -11   -1    0    0    0    0  0.00000000000E+00  0.00000000000E+00  0.45593999997E+02  0.45594000000E+02  0.51100000000E-03 0.  1.
         11   -1    0    0    0    0 -0.00000000000E+00 -0.00000000000E+00 -0.45593999997E+02  0.45594000000E+02  0.51100000000E-03 0. -1.
    9900012    2    1    2    0    0  0.16870418402E+02  0.96206411179E+01 -0.40644135143E+02  0.46142317920E+02  0.10000001445E+02 0.  0.
        -12    1    1    2    0    0 -0.16870418402E+02 -0.96206411179E+01  0.40644135143E+02  0.45045682080E+02  0.00000000000E+00 0.  1.
         11    1    3    3    0    0  0.46454182788E+01  0.59289753737E+01 -0.13234112240E+02  0.15227422205E+02  0.51100000000E-03 0. -1.
        -11    1    3    3    0    0  0.10841490217E+02  0.57602417384E+00 -0.19948486956E+02  0.22711491498E+02  0.51100000000E-03 0.  1.
        -12    1    3    3    0    0  0.13835099064E+01  0.31156415704E+01 -0.74615359466E+01  0.82034042165E+01  0.00000000000E+00 0.  1.
</event>
<event>
 7    1  0.4119299E-008  0.4614232E+02  0.7816164E-02  0.1320468E+00
        -11   -1    0    0    0    0  0.00000000000E+00  0.00000000000E+00  0.45593999997E+02  0.45594000000E+02  0.51100000000E-03 0.  1.
         11   -1    0    0    0    0 -0.00000000000E+00 -0.00000000000E+00 -0.45593999997E+02  0.45594000000E+02  0.51100000000E-03 0. -1.
    9900012    2    1    2    0    0  0.22430939425E+02  0.54571811469E+01 -0.38680558357E+02  0.46142318028E+02  0.10000002430E+02 0.  0.
        -12    1    1    2    0    0 -0.22430939425E+02 -0.54571811469E+01  0.38680558357E+02  0.45045681972E+02  0.00000000000E+00 0.  1.
         11    1    3    3    0    0  0.62213729646E+01  0.15859845693E+01 -0.99936593610E+01  0.11878301912E+02  0.51100000000E-03 0. -1.
        -11    1    3    3    0    0  0.16256704877E+02  0.27510096612E+01 -0.28748677512E+02  0.33141137074E+02  0.51100000000E-03 0.  1.
        -12    1    3    3    0    0 -0.47138416760E-01  0.11201869164E+01  0.61778515731E-01  0.11228790420E+01  0.00000000000E+00 0.  1.
</event>
<event>
 7    1  0.4119299E-008  0.4614232E+02  0.7816164E-02  0.1320468E+00
        -11   -1    0    0    0    0  0.00000000000E+00  0.00000000000E+00  0.45593999997E+02  0.45594000000E+02  0.51100000000E-03 0.  1.
         11   -1    0    0    0    0 -0.00000000000E+00 -0.00000000000E+00 -0.45593999997E+02  0.45594000000E+02  0.51100000000E-03 0. -1.
    9900012    2    1    2    0    0 -0.33590650256E+02  0.47006739639E+01 -0.29642630636E+02  0.46142315730E+02  0.99999814782E+01 0.  0.
        -12    1    1    2    0    0  0.33590650256E+02 -0.47006739639E+01  0.29642630636E+02  0.45045684270E+02  0.00000000000E+00 0.  1.
         11    1    3    3    0    0 -0.22058364617E+02  0.59068791577E+01 -0.19163432480E+02  0.29811068677E+02  0.51100000000E-03 0. -1.
        -11    1    3    3    0    0 -0.59623237740E+01  0.20266877644E+00 -0.24294807429E+01  0.64414871233E+01  0.51100000000E-03 0.  1.
         12    1    3    3    0    0 -0.55699618643E+01 -0.14088739702E+01 -0.80497174133E+01  0.98897599297E+01  0.00000000000E+00 0. -1.
</event>
<event>
 7    1  0.4119299E-008  0.4614232E+02  0.7816164E-02  0.1320468E+00
        -11   -1    0    0    0    0  0.00000000000E+00  0.00000000000E+00  0.45593999997E+02  0.45594000000E+02  0.51100000000E-03 0.  1.
         11   -1    0    0    0    0 -0.00000000000E+00 -0.00000000000E+00 -0.45593999997E+02  0.45594000000E+02  0.51100000000E-03 0. -1.
    9900012    2    1    2    0    0 -0.77182018853E+01  0.81430162887E+01 -0.43626071134E+02  0.46142318329E+02  0.10000005176E+02 0.  0.
        -12    1    1    2    0    0  0.77182018853E+01 -0.81430162887E+01  0.43626071134E+02  0.45045681671E+02  0.00000000000E+00 0.  1.
         11    1    3    3    0    0 -0.69144038675E+01  0.84655011508E+01 -0.33433593187E+02  0.35174974687E+02  0.51100000000E-03 0. -1.
        -11    1    3    3    0    0 -0.10257547532E+01 -0.47514083089E+00 -0.44302169651E+00  0.12141664250E+01  0.51100000000E-03 0.  1.
        -12    1    3    3    0    0  0.22195673538E+00  0.15265596878E+00 -0.97494562503E+01  0.97531772164E+01  0.00000000000E+00 0.  1.
</event>
<event>
 7    1  0.4119299E-008  0.4614232E+02  0.7816164E-02  0.1320468E+00
        -11   -1    0    0    0    0  0.00000000000E+00  0.00000000000E+00  0.45593999997E+02  0.45594000000E+02  0.51100000000E-03 0. -1.
         11   -1    0    0    0    0 -0.00000000000E+00 -0.00000000000E+00 -0.45593999997E+02  0.45594000000E+02  0.51100000000E-03 0.  1.
    9900012    2    1    2    0    0 -0.11094218378E+02 -0.38164420650E+02  0.21201622321E+02  0.46142317921E+02  0.10000001455E+02 0.  0.
        -12    1    1    2    0    0  0.11094218378E+02  0.38164420650E+02 -0.21201622321E+02  0.45045682079E+02  0.00000000000E+00 0.  1.
         11    1    3    3    0    0 -0.15035599630E+01 -0.19408107054E+01  0.21749350516E+01  0.32799057145E+01  0.51100000000E-03 0. -1.
        -11    1    3    3    0    0 -0.13233033005E+01 -0.12808121384E+02  0.10475279017E+02  0.16599113704E+02  0.51100000000E-03 0.  1.
         12    1    3    3    0    0 -0.82673551146E+01 -0.23415488560E+02  0.85514082524E+01  0.26263298502E+02  0.00000000000E+00 0. -1.
</event>
<event>
 7    1  0.4119299E-008  0.4614231E+02  0.7816164E-02  0.1320468E+00
        -11   -1    0    0    0    0  0.00000000000E+00  0.00000000000E+00  0.45593999997E+02  0.45594000000E+02  0.51100000000E-03 0.  1.
         11   -1    0    0    0    0 -0.00000000000E+00 -0.00000000000E+00 -0.45593999997E+02  0.45594000000E+02  0.51100000000E-03 0. -1.
    9900012    2    1    2    0    0  0.17872680797E+02  0.41092463523E+02 -0.45925023143E+01  0.46142308144E+02  0.99999123009E+01 0.  0.
        -12    1    1    2    0    0 -0.17872680797E+02 -0.41092463523E+02  0.45925023143E+01  0.45045691856E+02  0.00000000000E+00 0.  1.
         11    1    3    3    0    0  0.57767508621E+01  0.21501837841E+02 -0.46495616441E+01  0.22744632439E+02  0.51100000000E-03 0. -1.
        -11    1    3    3    0    0  0.90403201990E+01  0.11112885022E+02  0.85299070259E+00  0.14350999833E+02  0.51100000000E-03 0.  1.
        -12    1    3    3    0    0  0.30556097360E+01  0.84777406614E+01 -0.79593137279E+00  0.90466758718E+01  0.00000000000E+00 0.  1.
</event>
<event>
 7    1  0.4119299E-008  0.4614232E+02  0.7816164E-02  0.1320468E+00
        -11   -1    0    0    0    0  0.00000000000E+00  0.00000000000E+00  0.45593999997E+02  0.45594000000E+02  0.51100000000E-03 0.  1.
         11   -1    0    0    0    0 -0.00000000000E+00 -0.00000000000E+00 -0.45593999997E+02  0.45594000000E+02  0.51100000000E-03 0. -1.
    9900012    2    1    2    0    0 -0.10454597781E+01 -0.25770983457E+02 -0.36930704489E+02  0.46142317537E+02  0.99999979538E+01 0.  0.
        -12    1    1    2    0    0  0.10454597781E+01  0.25770983457E+02  0.36930704489E+02  0.45045682463E+02  0.00000000000E+00 0.  1.
         11    1    3    3    0    0 -0.84326043272E+00 -0.16461852697E+02 -0.23397071605E+02  0.28620388578E+02  0.51100000000E-03 0. -1.
        -11    1    3    3    0    0 -0.24758898442E+01 -0.60772998394E+01 -0.54737080981E+01  0.85454715764E+01  0.51100000000E-03 0.  1.
        -12    1    3    3    0    0  0.22736904989E+01 -0.32318309208E+01 -0.80599247862E+01  0.89764573827E+01  0.00000000000E+00 0.  1.
</event>
<event>
 7    1  0.4119299E-008  0.4614232E+02  0.7816164E-02  0.1320468E+00
        -11   -1    0    0    0    0  0.00000000000E+00  0.00000000000E+00  0.45593999997E+02  0.45594000000E+02  0.51100000000E-03 0.  1.
         11   -1    0    0    0    0 -0.00000000000E+00 -0.00000000000E+00 -0.45593999997E+02  0.45594000000E+02  0.51100000000E-03 0. -1.
    9900012    2    1    2    0    0  0.17858779869E+02 -0.41323062717E+02 -0.16068605483E+01  0.46142317282E+02  0.99999956269E+01 0.  0.
        -12    1    1    2    0    0 -0.17858779869E+02  0.41323062717E+02  0.16068605483E+01  0.45045682718E+02  0.00000000000E+00 0.  1.
         11    1    3    3    0    0  0.28005460364E+01 -0.16332953229E+01 -0.10223456291E+01  0.33993973819E+01  0.51100000000E-03 0. -1.
        -11    1    3    3    0    0 -0.17877571485E+00 -0.60894398274E+00 -0.48157089393E+00  0.79667077098E+00  0.51100000000E-03 0.  1.
         12    1    3    3    0    0  0.15237009547E+02 -0.39080823412E+02 -0.10294402534E+00  0.41946249129E+02  0.00000000000E+00 0. -1.
</event>
<event>
 7    1  0.4119299E-008  0.4614233E+02  0.7816164E-02  0.1320468E+00
        -11   -1    0    0    0    0  0.00000000000E+00  0.00000000000E+00  0.45593999997E+02  0.45594000000E+02  0.51100000000E-03 0.  1.
         11   -1    0    0    0    0 -0.00000000000E+00 -0.00000000000E+00 -0.45593999997E+02  0.45594000000E+02  0.51100000000E-03 0. -1.
    9900012    2    1    2    0    0 -0.20491132995E+02  0.26644841189E+02 -0.29987971506E+02  0.46142328416E+02  0.10000097163E+02 0.  0.
        -12    1    1    2    0    0  0.20491132995E+02 -0.26644841189E+02  0.29987971506E+02  0.45045671584E+02  0.00000000000E+00 0.  1.
         11    1    3    3    0    0 -0.40807445785E+01  0.30548881749E+01 -0.86911036237E+01  0.10075718363E+02  0.51100000000E-03 0. -1.
        -11    1    3    3    0    0 -0.10294733273E+02  0.13389786100E+02 -0.98105757015E+01  0.19532416666E+02  0.51100000000E-03 0.  1.
        -12    1    3    3    0    0 -0.61156551442E+01  0.10200166914E+02 -0.11486292181E+02  0.16534193387E+02  0.00000000000E+00 0.  1.
</event>
<event>
 7    1  0.4119299E-008  0.4614232E+02  0.7816164E-02  0.1320468E+00
        -11   -1    0    0    0    0  0.00000000000E+00  0.00000000000E+00  0.45593999997E+02  0.45594000000E+02  0.51100000000E-03 0. -1.
         11   -1    0    0    0    0 -0.00000000000E+00 -0.00000000000E+00 -0.45593999997E+02  0.45594000000E+02  0.51100000000E-03 0.  1.
    9900012    2    1    2    0    0  0.37680234161E+02 -0.12778098325E+02  0.21119508253E+02  0.46142317942E+02  0.10000001648E+02 0.  0.
        -12    1    1    2    0    0 -0.37680234161E+02  0.12778098325E+02 -0.21119508253E+02  0.45045682058E+02  0.00000000000E+00 0.  1.
         11    1    3    3    0    0  0.16232675900E+02 -0.78285456140E+01  0.86467015344E+01  0.19988780377E+02  0.51100000000E-03 0. -1.
        -11    1    3    3    0    0  0.10352012822E+02 -0.57579751408E+01  0.59264928349E+01  0.13245443170E+02  0.51100000000E-03 0.  1.
        -12    1    3    3    0    0  0.11095545440E+02  0.80842243018E+00  0.65463138835E+01  0.12908094395E+02  0.00000000000E+00 0.  1.
</event>
<event>
 7    1  0.4119299E-008  0.4614231E+02  0.7816164E-02  0.1320468E+00
        -11   -1    0    0    0    0  0.00000000000E+00  0.00000000000E+00  0.45593999997E+02  0.45594000000E+02  0.51100000000E-03 0. -1.
         11   -1    0    0    0    0 -0.00000000000E+00 -0.00000000000E+00 -0.45593999997E+02  0.45594000000E+02  0.51100000000E-03 0.  1.
    9900012    2    1    2    0    0  0.33082809977E+02  0.29212441320E+02  0.90152631904E+01  0.46142311924E+02  0.99999467725E+01 0.  0.
        -12    1    1    2    0    0 -0.33082809977E+02 -0.29212441320E+02 -0.90152631904E+01  0.45045688076E+02  0.00000000000E+00 0.  1.
         11    1    3    3    0    0  0.14195503584E+02  0.11128046852E+02  0.22231365259E+01  0.18173829674E+02  0.51100000000E-03 0. -1.
        -11    1    3    3    0    0  0.17824794576E+02  0.13889909661E+02  0.69390553963E+01  0.23639022444E+02  0.51100000000E-03 0.  1.
        -12    1    3    3    0    0  0.10625118170E+01  0.41944848071E+01 -0.14692873176E+00  0.43294598059E+01  0.00000000000E+00 0.  1.
</event>
<event>
 7    1  0.4119299E-008  0.4614232E+02  0.7816164E-02  0.1320468E+00
        -11   -1    0    0    0    0  0.00000000000E+00  0.00000000000E+00  0.45593999997E+02  0.45594000000E+02  0.51100000000E-03 0.  1.
         11   -1    0    0    0    0 -0.00000000000E+00 -0.00000000000E+00 -0.45593999997E+02  0.45594000000E+02  0.51100000000E-03 0. -1.
    9900012    2    1    2    0    0  0.34098323865E+01  0.38738653889E+02 -0.22733308490E+02  0.46142316778E+02  0.99999910311E+01 0.  0.
        -12    1    1    2    0    0 -0.34098323865E+01 -0.38738653889E+02  0.22733308490E+02  0.45045683222E+02  0.00000000000E+00 0.  1.
         11    1    3    3    0    0  0.27531277081E+01  0.20497855235E+02 -0.13052102555E+02  0.24456065971E+02  0.51100000000E-03 0. -1.
        -11    1    3    3    0    0  0.32997086204E+01  0.59645257197E+01 -0.28221292790E+01  0.73775373919E+01  0.51100000000E-03 0.  1.
        -12    1    3    3    0    0 -0.26430039421E+01  0.12276272935E+02 -0.68590766561E+01  0.14308713415E+02  0.00000000000E+00 0.  1.
</event>
<event>
 7    1  0.4119299E-008  0.4614232E+02  0.7816164E-02  0.1320468E+00
        -11   -1    0    0    0    0  0.00000000000E+00  0.00000000000E+00  0.45593999997E+02  0.45594000000E+02  0.51100000000E-03 0. -1.
         11   -1    0    0    0    0 -0.00000000000E+00 -0.00000000000E+00 -0.45593999997E+02  0.45594000000E+02  0.51100000000E-03 0.  1.
    9900012    2    1    2    0    0 -0.54833823708E+01 -0.24063627711E+02  0.37682726586E+02  0.46142317146E+02  0.99999943895E+01 0.  0.
        -12    1    1    2    0    0  0.54833823708E+01  0.24063627711E+02 -0.37682726586E+02  0.45045682854E+02  0.00000000000E+00 0.  1.
         11    1    3    3    0    0  0.84078331366E+00  0.10049587539E+00 -0.41293818491E-01  0.84777440517E+00  0.51100000000E-03 0.  1.
        -11    1    3    3    0    0 -0.19218501697E+01 -0.41315884666E+01  0.71077433423E+01  0.84429584278E+01  0.51100000000E-03 0. -1.
        -12    1    3    3    0    0 -0.44023155147E+01 -0.20032535120E+02  0.30616277062E+02  0.36851584313E+02  0.00000000000E+00 0.  1.
</event>
<event>
 7    1  0.4119299E-008  0.4614232E+02  0.7816164E-02  0.1320468E+00
        -11   -1    0    0    0    0  0.00000000000E+00  0.00000000000E+00  0.45593999997E+02  0.45594000000E+02  0.51100000000E-03 0.  1.
         11   -1    0    0    0    0 -0.00000000000E+00 -0.00000000000E+00 -0.45593999997E+02  0.45594000000E+02  0.51100000000E-03 0. -1.
    9900012    2    1    2    0    0  0.12092997589E+02  0.14070623149E+02 -0.41047417766E+02  0.46142317280E+02  0.99999956110E+01 0.  0.
        -12    1    1    2    0    0 -0.12092997589E+02 -0.14070623149E+02  0.41047417766E+02  0.45045682720E+02  0.00000000000E+00 0.  1.
         11    1    3    3    0    0  0.11557970464E+02  0.63683046788E+01 -0.24109053199E+02  0.27484330665E+02  0.51100000000E-03 0. -1.
        -11    1    3    3    0    0  0.10449965427E+00  0.19783320624E+01 -0.31328498839E+01  0.37066786457E+01  0.51100000000E-03 0.  1.
         12    1    3    3    0    0  0.43052747032E+00  0.57239864081E+01 -0.13805514683E+02  0.14951307969E+02  0.00000000000E+00 0. -1.
</event>
<event>
 7    1  0.4119299E-008  0.4614232E+02  0.7816164E-02  0.1320468E+00
        -11   -1    0    0    0    0  0.00000000000E+00  0.00000000000E+00  0.45593999997E+02  0.45594000000E+02  0.51100000000E-03 0.  1.
         11   -1    0    0    0    0 -0.00000000000E+00 -0.00000000000E+00 -0.45593999997E+02  0.45594000000E+02  0.51100000000E-03 0. -1.
    9900012    2    1    2    0    0 -0.36183517655E+02 -0.23785599387E+02 -0.12414182620E+02  0.46142316320E+02  0.99999868595E+01 0.  0.
        -12    1    1    2    0    0  0.36183517655E+02  0.23785599387E+02  0.12414182620E+02  0.45045683680E+02  0.00000000000E+00 0.  1.
         11    1    3    3    0    0 -0.16943206424E+02 -0.11928795202E+02 -0.96446044067E+01  0.22855782492E+02  0.51100000000E-03 0. -1.
        -11    1    3    3    0    0 -0.15863694404E+02 -0.74366357872E+01 -0.26756726152E+01  0.17723418863E+02  0.51100000000E-03 0.  1.
        -12    1    3    3    0    0 -0.33766168270E+01 -0.44201683977E+01 -0.93905598577E-01  0.55631149657E+01  0.00000000000E+00 0.  1.
</event>
<event>
 7    1  0.4119299E-008  0.4614230E+02  0.7816164E-02  0.1320468E+00
        -11   -1    0    0    0    0  0.00000000000E+00  0.00000000000E+00  0.45593999997E+02  0.45594000000E+02  0.51100000000E-03 0.  1.
         11   -1    0    0    0    0 -0.00000000000E+00 -0.00000000000E+00 -0.45593999997E+02  0.45594000000E+02  0.51100000000E-03 0. -1.
    9900012    2    1    2    0    0 -0.33005574660E+02 -0.23483237631E+02 -0.19704933304E+02  0.46142303149E+02  0.99998667501E+01 0.  0.
        -12    1    1    2    0    0  0.33005574660E+02  0.23483237631E+02  0.19704933304E+02  0.45045696851E+02  0.00000000000E+00 0.  1.
         11    1    3    3    0    0 -0.15766253892E+02 -0.12921862760E+02 -0.92810685509E+01  0.22398382367E+02  0.51100000000E-03 0. -1.
        -11    1    3    3    0    0 -0.10176486594E+02 -0.23639153350E+01 -0.41910217080E+01  0.11256715255E+02  0.51100000000E-03 0.  1.
         12    1    3    3    0    0 -0.70628341745E+01 -0.81974595369E+01 -0.62328430452E+01  0.12487205526E+02  0.00000000000E+00 0. -1.
</event>
<event>
 7    1  0.4119299E-008  0.4614232E+02  0.7816164E-02  0.1320468E+00
        -11   -1    0    0    0    0  0.00000000000E+00  0.00000000000E+00  0.45593999997E+02  0.45594000000E+02  0.51100000000E-03 0.  1.
         11   -1    0    0    0    0 -0.00000000000E+00 -0.00000000000E+00 -0.45593999997E+02  0.45594000000E+02  0.51100000000E-03 0. -1.
    9900012    2    1    2    0    0 -0.19181734218E+02  0.14713420711E+02 -0.38009076076E+02  0.46142317179E+02  0.99999946948E+01 0.  0.
        -12    1    1    2    0    0  0.19181734218E+02 -0.14713420711E+02  0.38009076076E+02  0.45045682821E+02  0.00000000000E+00 0.  1.
         11    1    3    3    0    0 -0.70863377437E+01  0.48435275570E+01 -0.14329419918E+02  0.16703539064E+02  0.51100000000E-03 0. -1.
        -11    1    3    3    0    0 -0.91936029516E+00 -0.60664512695E+00 -0.57578009817E+01  0.58622106810E+01  0.51100000000E-03 0.  1.
        -12    1    3    3    0    0 -0.11176036179E+02  0.10476538281E+02 -0.17921855177E+02  0.23576567435E+02  0.00000000000E+00 0.  1.
</event>
<event>
 7    1  0.4119299E-008  0.4614232E+02  0.7816164E-02  0.1320468E+00
        -11   -1    0    0    0    0  0.00000000000E+00  0.00000000000E+00  0.45593999997E+02  0.45594000000E+02  0.51100000000E-03 0.  1.
         11   -1    0    0    0    0 -0.00000000000E+00 -0.00000000000E+00 -0.45593999997E+02  0.45594000000E+02  0.51100000000E-03 0. -1.
    9900012    2    1    2    0    0 -0.17785871297E+02 -0.35637447211E+02 -0.21041592570E+02  0.46142317861E+02  0.10000000906E+02 0.  0.
        -12    1    1    2    0    0  0.17785871297E+02  0.35637447211E+02  0.21041592570E+02  0.45045682139E+02  0.00000000000E+00 0.  1.
         11    1    3    3    0    0 -0.18469142367E+01 -0.89950268981E+01 -0.61246086370E+01  0.11037772978E+02  0.51100000000E-03 0. -1.
        -11    1    3    3    0    0 -0.79339238091E+01 -0.92919687737E+01 -0.87413409329E+01  0.15023277681E+02  0.51100000000E-03 0.  1.
         12    1    3    3    0    0 -0.80050332506E+01 -0.17350451540E+02 -0.61756430003E+01  0.20081267202E+02  0.00000000000E+00 0. -1.
</event>
<event>
 7    1  0.4119299E-008  0.4614232E+02  0.7816164E-02  0.1320468E+00
        -11   -1    0    0    0    0  0.00000000000E+00  0.00000000000E+00  0.45593999997E+02  0.45594000000E+02  0.51100000000E-03 0. -1.
         11   -1    0    0    0    0 -0.00000000000E+00 -0.00000000000E+00 -0.45593999997E+02  0.45594000000E+02  0.51100000000E-03 0.  1.
    9900012    2    1    2    0    0  0.20440963358E+01  0.42892430087E+02 -0.13607891064E+02  0.46142316658E+02  0.99999899377E+01 0.  0.
        -12    1    1    2    0    0 -0.20440963358E+01 -0.42892430087E+02  0.13607891064E+02  0.45045683342E+02  0.00000000000E+00 0.  1.
         11    1    3    3    0    0 -0.24396581438E+01  0.52158382910E+01 -0.19773366848E+01  0.60882478236E+01  0.51100000000E-03 0. -1.
        -11    1    3    3    0    0 -0.53834671403E+00  0.46143376354E+01 -0.29541245415E+01  0.55053411398E+01  0.51100000000E-03 0.  1.
         12    1    3    3    0    0  0.50221011936E+01  0.33062254160E+02 -0.86764298377E+01  0.34548727694E+02  0.00000000000E+00 0. -1.
</event>
<event>
 7    1  0.4119299E-008  0.4614232E+02  0.7816164E-02  0.1320468E+00
        -11   -1    0    0    0    0  0.00000000000E+00  0.00000000000E+00  0.45593999997E+02  0.45594000000E+02  0.51100000000E-03 0.  1.
         11   -1    0    0    0    0 -0.00000000000E+00 -0.00000000000E+00 -0.45593999997E+02  0.45594000000E+02  0.51100000000E-03 0. -1.
    9900012    2    1    2    0    0  0.30496007575E+02  0.30921232666E+02  0.11957610595E+02  0.46142316980E+02  0.99999928801E+01 0.  0.
        -12    1    1    2    0    0 -0.30496007575E+02 -0.30921232666E+02 -0.11957610595E+02  0.45045683020E+02  0.00000000000E+00 0.  1.
         11    1    3    3    0    0  0.17345375385E+02  0.12743211015E+02  0.53752822178E+01  0.22184344331E+02  0.51100000000E-03 0. -1.
        -11    1    3    3    0    0  0.10226319243E+02  0.12959804745E+02  0.24541850852E+01  0.16690032025E+02  0.51100000000E-03 0.  1.
        -12    1    3    3    0    0  0.29243129469E+01  0.52182169059E+01  0.41281432916E+01  0.72679406247E+01  0.00000000000E+00 0.  1.
</event>
<event>
 7    1  0.4119299E-008  0.4614232E+02  0.7816164E-02  0.1320468E+00
        -11   -1    0    0    0    0  0.00000000000E+00  0.00000000000E+00  0.45593999997E+02  0.45594000000E+02  0.51100000000E-03 0.  1.
         11   -1    0    0    0    0 -0.00000000000E+00 -0.00000000000E+00 -0.45593999997E+02  0.45594000000E+02  0.51100000000E-03 0. -1.
    9900012    2    1    2    0    0  0.34908177610E+02 -0.55445720598E+01  0.27924726178E+02  0.46142317904E+02  0.10000001301E+02 0.  0.
        -12    1    1    2    0    0 -0.34908177610E+02  0.55445720598E+01 -0.27924726178E+02  0.45045682096E+02  0.00000000000E+00 0.  1.
         11    1    3    3    0    0  0.31565420906E+01 -0.20300457787E+01  0.41322008507E+01  0.55821078425E+01  0.51100000000E-03 0. -1.
        -11    1    3    3    0    0  0.15630674649E+02  0.72531897691E+00  0.78983619560E+01  0.17527926274E+02  0.51100000000E-03 0.  1.
         12    1    3    3    0    0  0.16120960871E+02 -0.42398452580E+01  0.15894163371E+02  0.23032283788E+02  0.00000000000E+00 0. -1.
</event>
<event>
 7    1  0.4119299E-008  0.4614232E+02  0.7816164E-02  0.1320468E+00
        -11   -1    0    0    0    0  0.00000000000E+00  0.00000000000E+00  0.45593999997E+02  0.45594000000E+02  0.51100000000E-03 0.  1.
         11   -1    0    0    0    0 -0.00000000000E+00 -0.00000000000E+00 -0.45593999997E+02  0.45594000000E+02  0.51100000000E-03 0. -1.
    9900012    2    1    2    0    0  0.30469990923E+02 -0.30055431988E+02 -0.14048636441E+02  0.46142317358E+02  0.99999963284E+01 0.  0.
        -12    1    1    2    0    0 -0.30469990923E+02  0.30055431988E+02  0.14048636441E+02  0.45045682642E+02  0.00000000000E+00 0.  1.
         11    1    3    3    0    0  0.12726104622E+02 -0.13101055241E+02 -0.85408443188E+01  0.20162772855E+02  0.51100000000E-03 0. -1.
        -11    1    3    3    0    0  0.47812592498E+01 -0.31005172922E+01 -0.39692391482E+01  0.69446747346E+01  0.51100000000E-03 0.  1.
        -12    1    3    3    0    0  0.12962627051E+02 -0.13853859455E+02 -0.15385529734E+01  0.19034869769E+02  0.00000000000E+00 0.  1.
</event>
<event>
 7    1  0.4119299E-008  0.4614232E+02  0.7816164E-02  0.1320468E+00
        -11   -1    0    0    0    0  0.00000000000E+00  0.00000000000E+00  0.45593999997E+02  0.45594000000E+02  0.51100000000E-03 0.  1.
         11   -1    0    0    0    0 -0.00000000000E+00 -0.00000000000E+00 -0.45593999997E+02  0.45594000000E+02  0.51100000000E-03 0. -1.
    9900012    2    1    2    0    0  0.82157244459E+00  0.21321465783E+02 -0.39671569946E+02  0.46142319337E+02  0.10000014373E+02 0.  0.
        -12    1    1    2    0    0 -0.82157244459E+00 -0.21321465783E+02  0.39671569946E+02  0.45045680663E+02  0.00000000000E+00 0.  1.
         11    1    3    3    0    0  0.73477622271E+00  0.82017169965E+01 -0.15203583605E+02  0.17290373405E+02  0.51100000000E-03 0.  1.
        -11    1    3    3    0    0  0.34109085849E+01  0.10521430875E+02 -0.18155830132E+02  0.21259561921E+02  0.51100000000E-03 0. -1.
        -12    1    3    3    0    0 -0.33241123630E+01  0.25983179111E+01 -0.63121562085E+01  0.75923840109E+01  0.00000000000E+00 0.  1.
</event>
<event>
 7    1  0.4119299E-008  0.4614232E+02  0.7816164E-02  0.1320468E+00
        -11   -1    0    0    0    0  0.00000000000E+00  0.00000000000E+00  0.45593999997E+02  0.45594000000E+02  0.51100000000E-03 0.  1.
         11   -1    0    0    0    0 -0.00000000000E+00 -0.00000000000E+00 -0.45593999997E+02  0.45594000000E+02  0.51100000000E-03 0. -1.
    9900012    2    1    2    0    0  0.22854503963E+02 -0.29905765270E+02 -0.24747328591E+02  0.46142318519E+02  0.10000006907E+02 0.  0.
        -12    1    1    2    0    0 -0.22854503963E+02  0.29905765270E+02  0.24747328591E+02  0.45045681481E+02  0.00000000000E+00 0.  1.
         11    1    3    3    0    0  0.11029325443E+02 -0.14543024842E+02 -0.12038426039E+02  0.21864795746E+02  0.51100000000E-03 0.  1.
        -11    1    3    3    0    0  0.79837326368E+01 -0.14250813869E+02 -0.11867917432E+02  0.20190917443E+02  0.51100000000E-03 0. -1.
        -12    1    3    3    0    0  0.38414458831E+01 -0.11119265588E+01 -0.84098511914E+00  0.40866053290E+01  0.00000000000E+00 0.  1.
</event>
<event>
 7    1  0.4119299E-008  0.4614232E+02  0.7816164E-02  0.1320468E+00
        -11   -1    0    0    0    0  0.00000000000E+00  0.00000000000E+00  0.45593999997E+02  0.45594000000E+02  0.51100000000E-03 0.  1.
         11   -1    0    0    0    0 -0.00000000000E+00 -0.00000000000E+00 -0.45593999997E+02  0.45594000000E+02  0.51100000000E-03 0. -1.
    9900012    2    1    2    0    0  0.20489844314E+02 -0.56981336853E+01 -0.39709079792E+02  0.46142318015E+02  0.10000002317E+02 0.  0.
        -12    1    1    2    0    0 -0.20489844314E+02  0.56981336853E+01  0.39709079792E+02  0.45045681985E+02  0.00000000000E+00 0.  1.
         11    1    3    3    0    0  0.13645962229E+02 -0.53982662259E+01 -0.19982411996E+02  0.24792142966E+02  0.51100000000E-03 0. -1.
        -11    1    3    3    0    0  0.54454467603E+01  0.17164084570E+01 -0.13529510410E+02  0.14684910644E+02  0.51100000000E-03 0.  1.
         12    1    3    3    0    0  0.13984353253E+01 -0.20162759163E+01 -0.61971573861E+01  0.66652644057E+01  0.00000000000E+00 0. -1.
</event>
<event>
 7    1  0.4119299E-008  0.4614232E+02  0.7816164E-02  0.1320468E+00
        -11   -1    0    0    0    0  0.00000000000E+00  0.00000000000E+00  0.45593999997E+02  0.45594000000E+02  0.51100000000E-03 0. -1.
         11   -1    0    0    0    0 -0.00000000000E+00 -0.00000000000E+00 -0.45593999997E+02  0.45594000000E+02  0.51100000000E-03 0.  1.
    9900012    2    1    2    0    0 -0.34782297488E+02 -0.28095475269E+02  0.54726130026E+01  0.46142318273E+02  0.10000004667E+02 0.  0.
        -12    1    1    2    0    0  0.34782297488E+02  0.28095475269E+02 -0.54726130026E+01  0.45045681727E+02  0.00000000000E+00 0.  1.
         11    1    3    3    0    0 -0.78304571983E+01 -0.51473135421E+01  0.14634331521E+01  0.94843309457E+01  0.51100000000E-03 0. -1.
        -11    1    3    3    0    0 -0.13349466201E+02 -0.16820589743E+02  0.14682773410E+01  0.21524319403E+02  0.51100000000E-03 0.  1.
         12    1    3    3    0    0 -0.13602374089E+02 -0.61275719845E+01  0.25409025095E+01  0.15133667924E+02  0.00000000000E+00 0. -1.
</event>
<event>
 7    1  0.4119299E-008  0.4614232E+02  0.7816164E-02  0.1320468E+00
        -11   -1    0    0    0    0  0.00000000000E+00  0.00000000000E+00  0.45593999997E+02  0.45594000000E+02  0.51100000000E-03 0.  1.
         11   -1    0    0    0    0 -0.00000000000E+00 -0.00000000000E+00 -0.45593999997E+02  0.45594000000E+02  0.51100000000E-03 0. -1.
    9900012    2    1    2    0    0  0.30939778392E+01  0.94107207883E+00 -0.44929445022E+02  0.46142319347E+02  0.10000014462E+02 0.  0.
        -12    1    1    2    0    0 -0.30939778392E+01 -0.94107207883E+00  0.44929445022E+02  0.45045680653E+02  0.00000000000E+00 0.  1.
         11    1    3    3    0    0  0.44306827855E+01  0.20115013481E+01 -0.27461046467E+02  0.27888817848E+02  0.51100000000E-03 0. -1.
        -11    1    3    3    0    0  0.30695094694E+00 -0.28331496957E+01 -0.10511756506E+02  0.10891188236E+02  0.51100000000E-03 0.  1.
         12    1    3    3    0    0 -0.16436558932E+01  0.17627204264E+01 -0.69566420488E+01  0.73623132636E+01  0.00000000000E+00 0. -1.
</event>
<event>
 7    1  0.4119299E-008  0.4614232E+02  0.7816164E-02  0.1320468E+00
        -11   -1    0    0    0    0  0.00000000000E+00  0.00000000000E+00  0.45593999997E+02  0.45594000000E+02  0.51100000000E-03 0.  1.
         11   -1    0    0    0    0 -0.00000000000E+00 -0.00000000000E+00 -0.45593999997E+02  0.45594000000E+02  0.51100000000E-03 0. -1.
    9900012    2    1    2    0    0  0.28065286280E+02 -0.71683292330E+01 -0.34497366752E+02  0.46142317068E+02  0.99999936820E+01 0.  0.
        -12    1    1    2    0    0 -0.28065286280E+02  0.71683292330E+01  0.34497366752E+02  0.45045682932E+02  0.00000000000E+00 0.  1.
         11    1    3    3    0    0  0.70080021979E+01 -0.26351583246E+01 -0.75724748829E+01  0.10648874603E+02  0.51100000000E-03 0. -1.
        -11    1    3    3    0    0  0.16359651877E+02 -0.20570542984E+00 -0.16288579831E+02  0.23086757188E+02  0.51100000000E-03 0.  1.
        -12    1    3    3    0    0  0.46976322046E+01 -0.43274654785E+01 -0.10636312038E+02  0.12406685277E+02  0.00000000000E+00 0.  1.
</event>
<event>
 7    1  0.4119299E-008  0.4614233E+02  0.7816164E-02  0.1320468E+00
        -11   -1    0    0    0    0  0.00000000000E+00  0.00000000000E+00  0.45593999997E+02  0.45594000000E+02  0.51100000000E-03 0. -1.
         11   -1    0    0    0    0 -0.00000000000E+00 -0.00000000000E+00 -0.45593999997E+02  0.45594000000E+02  0.51100000000E-03 0.  1.
    9900012    2    1    2    0    0  0.21749836894E+02  0.34740699515E+02 -0.18685320293E+02  0.46142325379E+02  0.10000069462E+02 0.  0.
        -12    1    1    2    0    0 -0.21749836894E+02 -0.34740699515E+02  0.18685320293E+02  0.45045674621E+02  0.00000000000E+00 0.  1.
         11    1    3    3    0    0  0.75740063311E+01  0.13849257472E+02 -0.51406477560E+01  0.16601016958E+02  0.51100000000E-03 0. -1.
        -11    1    3    3    0    0  0.51631983934E+01  0.56172531980E+01 -0.73703846396E+00  0.76652056136E+01  0.51100000000E-03 0.  1.
        -12    1    3    3    0    0  0.90126321691E+01  0.15274188844E+02 -0.12807634073E+02  0.21876102807E+02  0.00000000000E+00 0.  1.
</event>
<event>
 7    1  0.4119299E-008  0.4614232E+02  0.7816164E-02  0.1320468E+00
        -11   -1    0    0    0    0  0.00000000000E+00  0.00000000000E+00  0.45593999997E+02  0.45594000000E+02  0.51100000000E-03 0. -1.
         11   -1    0    0    0    0 -0.00000000000E+00 -0.00000000000E+00 -0.45593999997E+02  0.45594000000E+02  0.51100000000E-03 0.  1.
    9900012    2    1    2    0    0 -0.40313631216E+02  0.45072450293E+01  0.19585947248E+02  0.46142318196E+02  0.10000003965E+02 0.  0.
        -12    1    1    2    0    0  0.40313631216E+02 -0.45072450293E+01 -0.19585947248E+02  0.45045681804E+02  0.00000000000E+00 0.  1.
         11    1    3    3    0    0 -0.20071456589E+02  0.40929750212E+01  0.60543568919E+01  0.21360502142E+02  0.51100000000E-03 0.  1.
        -11    1    3    3    0    0 -0.81770072313E+01  0.12780057999E+01  0.78910882435E+01  0.11435297111E+02  0.51100000000E-03 0. -1.
         12    1    3    3    0    0 -0.12065167396E+02 -0.86373579181E+00  0.56405021123E+01  0.13346518943E+02  0.00000000000E+00 0. -1.
</event>
<event>
 7    1  0.5421216E-008  0.4614232E+02  0.7816164E-02  0.1320468E+00
        -11   -1    0    0    0    0  0.00000000000E+00  0.00000000000E+00  0.45593999997E+02  0.45594000000E+02  0.51100000000E-03 0. -1.
         11   -1    0    0    0    0 -0.00000000000E+00 -0.00000000000E+00 -0.45593999997E+02  0.45594000000E+02  0.51100000000E-03 0.  1.
    9900012    2    1    2    0    0  0.19306399230E+02 -0.38925561524E+02  0.11881785614E+02  0.46142320734E+02  0.10000027109E+02 0.  0.
        -12    1    1    2    0    0 -0.19306399230E+02  0.38925561524E+02 -0.11881785614E+02  0.45045679266E+02  0.00000000000E+00 0.  1.
         11    1    3    3    0    0  0.10044172638E+02 -0.21017907663E+02  0.56659464570E+01  0.23973752231E+02  0.51100000000E-03 0. -1.
        -11    1    3    3    0    0  0.10261414169E+02 -0.16212578615E+02  0.63117581344E+01  0.20198579581E+02  0.51100000000E-03 0.  1.
        -12    1    3    3    0    0 -0.99918757684E+00 -0.16950752454E+01 -0.95918977644E-01  0.19699889217E+01  0.00000000000E+00 0.  1.
</event>
<event>
 7    1  0.4119299E-008  0.4614232E+02  0.7816164E-02  0.1320468E+00
        -11   -1    0    0    0    0  0.00000000000E+00  0.00000000000E+00  0.45593999997E+02  0.45594000000E+02  0.51100000000E-03 0.  1.
         11   -1    0    0    0    0 -0.00000000000E+00 -0.00000000000E+00 -0.45593999997E+02  0.45594000000E+02  0.51100000000E-03 0. -1.
    9900012    2    1    2    0    0 -0.58754624040E+01  0.27567278847E+02 -0.35137409000E+02  0.46142318378E+02  0.10000005628E+02 0.  0.
        -12    1    1    2    0    0  0.58754624040E+01 -0.27567278847E+02  0.35137409000E+02  0.45045681622E+02  0.00000000000E+00 0.  1.
         11    1    3    3    0    0 -0.43425161608E+01  0.25506639619E+02 -0.27169340349E+02  0.37518251112E+02  0.51100000000E-03 0. -1.
        -11    1    3    3    0    0  0.92648759822E-01  0.26740791785E+00  0.13756392658E-01  0.28333776078E+00  0.51100000000E-03 0.  1.
         12    1    3    3    0    0 -0.16255950030E+01  0.17932313105E+01 -0.79818250443E+01  0.83407295056E+01  0.00000000000E+00 0. -1.
</event>
<event>
 7    1  0.4119299E-008  0.4614232E+02  0.7816164E-02  0.1320468E+00
        -11   -1    0    0    0    0  0.00000000000E+00  0.00000000000E+00  0.45593999997E+02  0.45594000000E+02  0.51100000000E-03 0.  1.
         11   -1    0    0    0    0 -0.00000000000E+00 -0.00000000000E+00 -0.45593999997E+02  0.45594000000E+02  0.51100000000E-03 0. -1.
    9900012    2    1    2    0    0 -0.86099829895E+01 -0.43114620206E+02 -0.98036339991E+01  0.46142317386E+02  0.99999965771E+01 0.  0.
        -12    1    1    2    0    0  0.86099829895E+01  0.43114620206E+02  0.98036339991E+01  0.45045682614E+02  0.00000000000E+00 0.  1.
         11    1    3    3    0    0 -0.76412166280E+01 -0.32380078681E+02 -0.48152612862E+01  0.33616133455E+02  0.51100000000E-03 0. -1.
        -11    1    3    3    0    0 -0.19924355299E+01 -0.55057530859E+01 -0.11693600170E+01  0.59708055984E+01  0.51100000000E-03 0.  1.
        -12    1    3    3    0    0  0.10236691684E+01 -0.52287884387E+01 -0.38190126958E+01  0.65553783319E+01  0.00000000000E+00 0.  1.
</event>
<event>
 7    1  0.4119299E-008  0.4614232E+02  0.7816164E-02  0.1320468E+00
        -11   -1    0    0    0    0  0.00000000000E+00  0.00000000000E+00  0.45593999997E+02  0.45594000000E+02  0.51100000000E-03 0.  1.
         11   -1    0    0    0    0 -0.00000000000E+00 -0.00000000000E+00 -0.45593999997E+02  0.45594000000E+02  0.51100000000E-03 0. -1.
    9900012    2    1    2    0    0  0.13524297693E+02 -0.28397145916E+02 -0.32246068129E+02  0.46142318364E+02  0.10000005498E+02 0.  0.
        -12    1    1    2    0    0 -0.13524297693E+02  0.28397145916E+02  0.32246068129E+02  0.45045681636E+02  0.00000000000E+00 0.  1.
         11    1    3    3    0    0  0.96227464727E+01 -0.14852190999E+02 -0.15713498138E+02  0.23666407652E+02  0.51100000000E-03 0. -1.
        -11    1    3    3    0    0  0.43935105034E+01 -0.11172453373E+02 -0.10405449625E+02  0.15887102665E+02  0.51100000000E-03 0.  1.
        -12    1    3    3    0    0 -0.49195928284E+00 -0.23725015440E+01 -0.61271203650E+01  0.65888080470E+01  0.00000000000E+00 0.  1.
</event>
<event>
 7    1  0.4119299E-008  0.4614232E+02  0.7816164E-02  0.1320468E+00
        -11   -1    0    0    0    0  0.00000000000E+00  0.00000000000E+00  0.45593999997E+02  0.45594000000E+02  0.51100000000E-03 0. -1.
         11   -1    0    0    0    0 -0.00000000000E+00 -0.00000000000E+00 -0.45593999997E+02  0.45594000000E+02  0.51100000000E-03 0.  1.
    9900012    2    1    2    0    0  0.15828773323E+02 -0.53839448884E+01  0.41827939709E+02  0.46142317990E+02  0.10000002083E+02 0.  0.
        -12    1    1    2    0    0 -0.15828773323E+02  0.53839448884E+01 -0.41827939709E+02  0.45045682010E+02  0.00000000000E+00 0.  1.
         11    1    3    3    0    0  0.34518279312E+01 -0.44500968762E+01  0.19203388555E+02  0.20012211535E+02  0.51100000000E-03 0. -1.
        -11    1    3    3    0    0  0.10043045695E+02 -0.20694899463E+01  0.19776376495E+02  0.22276683393E+02  0.51100000000E-03 0.  1.
        -12    1    3    3    0    0  0.23338996976E+01  0.11356419341E+01  0.28481746589E+01  0.38534230612E+01  0.00000000000E+00 0.  1.
</event>
<event>
 7    1  0.4119299E-008  0.4614232E+02  0.7816164E-02  0.1320468E+00
        -11   -1    0    0    0    0  0.00000000000E+00  0.00000000000E+00  0.45593999997E+02  0.45594000000E+02  0.51100000000E-03 0.  1.
         11   -1    0    0    0    0 -0.00000000000E+00 -0.00000000000E+00 -0.45593999997E+02  0.45594000000E+02  0.51100000000E-03 0. -1.
    9900012    2    1    2    0    0  0.28159954602E+02  0.77254421260E+01 -0.34299387694E+02  0.46142317683E+02  0.99999992896E+01 0.  0.
        -12    1    1    2    0    0 -0.28159954602E+02 -0.77254421260E+01  0.34299387694E+02  0.45045682317E+02  0.00000000000E+00 0.  1.
         11    1    3    3    0    0  0.16656232361E+02  0.51123342586E+01 -0.18037432720E+02  0.25078178112E+02  0.51100000000E-03 0. -1.
        -11    1    3    3    0    0  0.56695775425E+01  0.23312873438E+01 -0.35731606540E+01  0.70955258797E+01  0.51100000000E-03 0.  1.
         12    1    3    3    0    0  0.58341446982E+01  0.28182052362E+00 -0.12688794319E+02  0.13968613691E+02  0.00000000000E+00 0. -1.
</event>
<event>
 7    1  0.4119299E-008  0.4614232E+02  0.7816164E-02  0.1320468E+00
        -11   -1    0    0    0    0  0.00000000000E+00  0.00000000000E+00  0.45593999997E+02  0.45594000000E+02  0.51100000000E-03 0.  1.
         11   -1    0    0    0    0 -0.00000000000E+00 -0.00000000000E+00 -0.45593999997E+02  0.45594000000E+02  0.51100000000E-03 0. -1.
    9900012    2    1    2    0    0  0.34954576544E+01 -0.14147390042E+02 -0.42623310365E+02  0.46142318124E+02  0.10000003313E+02 0.  0.
        -12    1    1    2    0    0 -0.34954576544E+01  0.14147390042E+02  0.42623310365E+02  0.45045681876E+02  0.00000000000E+00 0.  1.
         11    1    3    3    0    0  0.31814390586E+01 -0.12048529598E+02 -0.37628421448E+02  0.39638197750E+02  0.51100000000E-03 0. -1.
        -11    1    3    3    0    0 -0.11913469703E+01 -0.22219667753E+01 -0.22892682970E+01  0.34054652474E+01  0.51100000000E-03 0.  1.
         12    1    3    3    0    0  0.15053655662E+01  0.12310633220E+00 -0.27056206198E+01  0.30986551268E+01  0.00000000000E+00 0. -1.
</event>
<event>
 7    1  0.4119299E-008  0.4614232E+02  0.7816164E-02  0.1320468E+00
        -11   -1    0    0    0    0  0.00000000000E+00  0.00000000000E+00  0.45593999997E+02  0.45594000000E+02  0.51100000000E-03 0.  1.
         11   -1    0    0    0    0 -0.00000000000E+00 -0.00000000000E+00 -0.45593999997E+02  0.45594000000E+02  0.51100000000E-03 0. -1.
    9900012    2    1    2    0    0 -0.29847911221E+02  0.10815327533E+02 -0.31956912817E+02  0.46142318845E+02  0.10000009886E+02 0.  0.
        -12    1    1    2    0    0  0.29847911221E+02 -0.10815327533E+02  0.31956912817E+02  0.45045681155E+02  0.00000000000E+00 0.  1.
         11    1    3    3    0    0 -0.10910976349E+02  0.55696121547E+01 -0.10178090322E+02  0.15926817237E+02  0.51100000000E-03 0. -1.
        -11    1    3    3    0    0 -0.82877636778E+01 -0.89924504866E+00 -0.63073764613E+01  0.10453643696E+02  0.51100000000E-03 0.  1.
         12    1    3    3    0    0 -0.10649171195E+02  0.61449604266E+01 -0.15471446034E+02  0.19761857913E+02  0.00000000000E+00 0. -1.
</event>
<event>
 7    1  0.4119299E-008  0.4614232E+02  0.7816164E-02  0.1320468E+00
        -11   -1    0    0    0    0  0.00000000000E+00  0.00000000000E+00  0.45593999997E+02  0.45594000000E+02  0.51100000000E-03 0.  1.
         11   -1    0    0    0    0 -0.00000000000E+00 -0.00000000000E+00 -0.45593999997E+02  0.45594000000E+02  0.51100000000E-03 0. -1.
    9900012    2    1    2    0    0  0.34548250552E+02  0.11650439735E+02  0.26453718566E+02  0.46142316653E+02  0.99999898940E+01 0.  0.
        -12    1    1    2    0    0 -0.34548250552E+02 -0.11650439735E+02 -0.26453718566E+02  0.45045683347E+02  0.00000000000E+00 0.  1.
         11    1    3    3    0    0  0.19110435270E+02  0.39000143871E+01  0.16994047851E+02  0.25869219375E+02  0.51100000000E-03 0. -1.
        -11    1    3    3    0    0  0.39915446600E+01  0.43363825032E+01  0.21743367006E+01  0.62820683167E+01  0.51100000000E-03 0.  1.
        -12    1    3    3    0    0  0.11446270622E+02  0.34140428443E+01  0.72853340148E+01  0.13991028962E+02  0.00000000000E+00 0.  1.
</event>
<event>
 7    1  0.4119299E-008  0.4614232E+02  0.7816164E-02  0.1320468E+00
        -11   -1    0    0    0    0  0.00000000000E+00  0.00000000000E+00  0.45593999997E+02  0.45594000000E+02  0.51100000000E-03 0. -1.
         11   -1    0    0    0    0 -0.00000000000E+00 -0.00000000000E+00 -0.45593999997E+02  0.45594000000E+02  0.51100000000E-03 0.  1.
    9900012    2    1    2    0    0 -0.17105221934E+02  0.10847914423E+01  0.41657509750E+02  0.46142317539E+02  0.99999979705E+01 0.  0.
        -12    1    1    2    0    0  0.17105221934E+02 -0.10847914423E+01 -0.41657509750E+02  0.45045682461E+02  0.00000000000E+00 0.  1.
         11    1    3    3    0    0 -0.67132248158E+01 -0.14709094395E+00  0.75723916276E+01  0.10120777559E+02  0.51100000000E-03 0. -1.
        -11    1    3    3    0    0 -0.24065553101E+01  0.12672299520E+01  0.36239685149E+01  0.45310625983E+01  0.51100000000E-03 0.  1.
         12    1    3    3    0    0 -0.79854418078E+01 -0.35347565762E-01  0.30461149607E+02  0.31490477381E+02  0.00000000000E+00 0. -1.
</event>
<event>
 7    1  0.4119299E-008  0.4614232E+02  0.7816164E-02  0.1320468E+00
        -11   -1    0    0    0    0  0.00000000000E+00  0.00000000000E+00  0.45593999997E+02  0.45594000000E+02  0.51100000000E-03 0. -1.
         11   -1    0    0    0    0 -0.00000000000E+00 -0.00000000000E+00 -0.45593999997E+02  0.45594000000E+02  0.51100000000E-03 0.  1.
    9900012    2    1    2    0    0  0.37703473815E+02 -0.18957799545E+01  0.24575751728E+02  0.46142317717E+02  0.99999995953E+01 0.  0.
        -12    1    1    2    0    0 -0.37703473815E+02  0.18957799545E+01 -0.24575751728E+02  0.45045682283E+02  0.00000000000E+00 0.  1.
         11    1    3    3    0    0  0.15075310145E+02  0.15938948307E+01  0.13143156827E+02  0.20063600084E+02  0.51100000000E-03 0. -1.
        -11    1    3    3    0    0  0.46787858067E+01  0.40330357529E+00  0.54543119234E+00  0.47277040776E+01  0.51100000000E-03 0.  1.
         12    1    3    3    0    0  0.17949377864E+02 -0.38929783605E+01  0.10887163709E+02  0.21351013555E+02  0.00000000000E+00 0. -1.
</event>
<event>
 7    1  0.4119299E-008  0.4614232E+02  0.7816164E-02  0.1320468E+00
        -11   -1    0    0    0    0  0.00000000000E+00  0.00000000000E+00  0.45593999997E+02  0.45594000000E+02  0.51100000000E-03 0. -1.
         11   -1    0    0    0    0 -0.00000000000E+00 -0.00000000000E+00 -0.45593999997E+02  0.45594000000E+02  0.51100000000E-03 0.  1.
    9900012    2    1    2    0    0  0.33182042249E+02 -0.29962576977E+02 -0.55054023006E+01  0.46142318726E+02  0.10000008802E+02 0.  0.
        -12    1    1    2    0    0 -0.33182042249E+02  0.29962576977E+02  0.55054023006E+01  0.45045681274E+02  0.00000000000E+00 0.  1.
         11    1    3    3    0    0  0.59019040265E+00 -0.12274055346E-01 -0.63667741185E+00  0.86823600000E+00  0.51100000000E-03 0. -1.
        -11    1    3    3    0    0  0.29963250073E+01 -0.87860423538E+00 -0.19598344316E+01  0.36865783882E+01  0.51100000000E-03 0.  1.
         12    1    3    3    0    0  0.29595526839E+02 -0.29071698686E+02 -0.29088904571E+01  0.41587504338E+02  0.00000000000E+00 0. -1.
</event>
<event>
 7    1  0.4119299E-008  0.4614232E+02  0.7816164E-02  0.1320468E+00
        -11   -1    0    0    0    0  0.00000000000E+00  0.00000000000E+00  0.45593999997E+02  0.45594000000E+02  0.51100000000E-03 0. -1.
         11   -1    0    0    0    0 -0.00000000000E+00 -0.00000000000E+00 -0.45593999997E+02  0.45594000000E+02  0.51100000000E-03 0.  1.
    9900012    2    1    2    0    0 -0.91622278710E+01 -0.21132014789E+01  0.44053394001E+02  0.46142316932E+02  0.99999924365E+01 0.  0.
        -12    1    1    2    0    0  0.91622278710E+01  0.21132014789E+01 -0.44053394001E+02  0.45045683068E+02  0.00000000000E+00 0.  1.
         11    1    3    3    0    0  0.54679265400E+00 -0.89313653741E+00  0.54434395944E+01  0.55432580636E+01  0.51100000000E-03 0.  1.
        -11    1    3    3    0    0 -0.77915768227E+01  0.25154404042E+00  0.36698964187E+02  0.37517807991E+02  0.51100000000E-03 0. -1.
        -12    1    3    3    0    0 -0.19174437023E+01 -0.14716089820E+01  0.19109902204E+01  0.30812508774E+01  0.00000000000E+00 0.  1.
</event>
<event>
 7    1  0.4119299E-008  0.4614232E+02  0.7816164E-02  0.1320468E+00
        -11   -1    0    0    0    0  0.00000000000E+00  0.00000000000E+00  0.45593999997E+02  0.45594000000E+02  0.51100000000E-03 0.  1.
         11   -1    0    0    0    0 -0.00000000000E+00 -0.00000000000E+00 -0.45593999997E+02  0.45594000000E+02  0.51100000000E-03 0. -1.
    9900012    2    1    2    0    0 -0.37651523080E+02  0.18782087688E+02 -0.16084449456E+02  0.46142317383E+02  0.99999965476E+01 0.  0.
        -12    1    1    2    0    0  0.37651523080E+02 -0.18782087688E+02  0.16084449456E+02  0.45045682617E+02  0.00000000000E+00 0.  1.
         11    1    3    3    0    0 -0.16539429218E+02  0.64371220808E+01 -0.10083479086E+02  0.20412393546E+02  0.51100000000E-03 0. -1.
        -11    1    3    3    0    0 -0.21068187681E+00  0.13993982568E+01 -0.16364814881E+00  0.14245993514E+01  0.51100000000E-03 0.  1.
         12    1    3    3    0    0 -0.20901411986E+02  0.10945567351E+02 -0.58373222205E+01  0.24305324485E+02  0.00000000000E+00 0. -1.
</event>
<event>
 7    1  0.4119299E-008  0.4614232E+02  0.7816164E-02  0.1320468E+00
        -11   -1    0    0    0    0  0.00000000000E+00  0.00000000000E+00  0.45593999997E+02  0.45594000000E+02  0.51100000000E-03 0.  1.
         11   -1    0    0    0    0 -0.00000000000E+00 -0.00000000000E+00 -0.45593999997E+02  0.45594000000E+02  0.51100000000E-03 0. -1.
    9900012    2    1    2    0    0  0.43513699313E+02  0.11295938778E+02  0.28413140265E+01  0.46142319562E+02  0.10000016419E+02 0.  0.
        -12    1    1    2    0    0 -0.43513699313E+02 -0.11295938778E+02 -0.28413140265E+01  0.45045680438E+02  0.00000000000E+00 0.  1.
         11    1    3    3    0    0  0.15741105744E+02  0.22829468453E+01  0.42274045823E+00  0.15911409934E+02  0.51100000000E-03 0. -1.
        -11    1    3    3    0    0  0.25577424278E+02  0.67102415859E+01  0.38866466113E+01  0.26727102293E+02  0.51100000000E-03 0.  1.
        -12    1    3    3    0    0  0.21951692906E+01  0.23027503472E+01 -0.14680730431E+01  0.35038073343E+01  0.00000000000E+00 0.  1.
</event>
<event>
 7    1  0.4119299E-008  0.4614231E+02  0.7816164E-02  0.1320468E+00
        -11   -1    0    0    0    0  0.00000000000E+00  0.00000000000E+00  0.45593999997E+02  0.45594000000E+02  0.51100000000E-03 0.  1.
         11   -1    0    0    0    0 -0.00000000000E+00 -0.00000000000E+00 -0.45593999997E+02  0.45594000000E+02  0.51100000000E-03 0. -1.
    9900012    2    1    2    0    0  0.28883304043E+02  0.16805566596E+01 -0.34526000747E+02  0.46142309299E+02  0.99999228375E+01 0.  0.
        -12    1    1    2    0    0 -0.28883304043E+02 -0.16805566596E+01  0.34526000747E+02  0.45045690701E+02  0.00000000000E+00 0.  1.
         11    1    3    3    0    0  0.16829002704E+02  0.57580011423E+00 -0.16210644029E+02  0.23373742916E+02  0.51100000000E-03 0. -1.
        -11    1    3    3    0    0  0.87352098305E+01  0.65723268100E+00 -0.77879548104E+01  0.11721266398E+02  0.51100000000E-03 0.  1.
         12    1    3    3    0    0  0.33190915082E+01  0.44752386436E+00 -0.10527401908E+02  0.11047299986E+02  0.00000000000E+00 0. -1.
</event>
<event>
 7    1  0.4119299E-008  0.4614232E+02  0.7816164E-02  0.1320468E+00
        -11   -1    0    0    0    0  0.00000000000E+00  0.00000000000E+00  0.45593999997E+02  0.45594000000E+02  0.51100000000E-03 0. -1.
         11   -1    0    0    0    0 -0.00000000000E+00 -0.00000000000E+00 -0.45593999997E+02  0.45594000000E+02  0.51100000000E-03 0.  1.
    9900012    2    1    2    0    0 -0.13422983037E+02  0.69630770801E+01  0.42431740040E+02  0.46142317866E+02  0.10000000959E+02 0.  0.
        -12    1    1    2    0    0  0.13422983037E+02 -0.69630770801E+01 -0.42431740040E+02  0.45045682134E+02  0.00000000000E+00 0.  1.
         11    1    3    3    0    0 -0.58441271371E+00  0.24323334125E+01  0.10208998815E+02  0.10511015228E+02  0.51100000000E-03 0. -1.
        -11    1    3    3    0    0 -0.96597302948E+00  0.30975903141E+01  0.65253653838E+01  0.72875622331E+01  0.51100000000E-03 0.  1.
        -12    1    3    3    0    0 -0.11872597294E+02  0.14331533536E+01  0.25697375841E+02  0.28343740405E+02  0.00000000000E+00 0.  1.
</event>
<event>
 7    1  0.4119299E-008  0.4614232E+02  0.7816164E-02  0.1320468E+00
        -11   -1    0    0    0    0  0.00000000000E+00  0.00000000000E+00  0.45593999997E+02  0.45594000000E+02  0.51100000000E-03 0.  1.
         11   -1    0    0    0    0 -0.00000000000E+00 -0.00000000000E+00 -0.45593999997E+02  0.45594000000E+02  0.51100000000E-03 0. -1.
    9900012    2    1    2    0    0  0.12428836302E+02 -0.66114637786E+01 -0.42789321828E+02  0.46142317770E+02  0.10000000077E+02 0.  0.
        -12    1    1    2    0    0 -0.12428836302E+02  0.66114637786E+01  0.42789321828E+02  0.45045682230E+02  0.00000000000E+00 0.  1.
         11    1    3    3    0    0 -0.19391333032E+00 -0.49536717809E+00  0.19765132310E+00  0.56750094929E+00  0.51100000000E-03 0.  1.
        -11    1    3    3    0    0  0.42590116870E+00 -0.71394336923E-01 -0.83173179652E+01  0.83285213185E+01  0.51100000000E-03 0. -1.
        -12    1    3    3    0    0  0.12196848464E+02 -0.60447022636E+01 -0.34669655186E+02  0.37246295502E+02  0.00000000000E+00 0.  1.
</event>
<event>
 7    1  0.4119299E-008  0.4614232E+02  0.7816164E-02  0.1320468E+00
        -11   -1    0    0    0    0  0.00000000000E+00  0.00000000000E+00  0.45593999997E+02  0.45594000000E+02  0.51100000000E-03 0.  1.
         11   -1    0    0    0    0 -0.00000000000E+00 -0.00000000000E+00 -0.45593999997E+02  0.45594000000E+02  0.51100000000E-03 0. -1.
    9900012    2    1    2    0    0 -0.21874328995E+01 -0.44824950716E+02 -0.38797416645E+01  0.46142318023E+02  0.10000002388E+02 0.  0.
        -12    1    1    2    0    0  0.21874328995E+01  0.44824950716E+02  0.38797416645E+01  0.45045681977E+02  0.00000000000E+00 0.  1.
         11    1    3    3    0    0 -0.45295821951E+01 -0.21797256269E+02  0.16320636043E+01  0.22322659509E+02  0.51100000000E-03 0. -1.
        -11    1    3    3    0    0  0.17141711098E+01 -0.12396481980E+02 -0.33083281612E+01  0.12944349483E+02  0.51100000000E-03 0.  1.
         12    1    3    3    0    0  0.62797818582E+00 -0.10631212468E+02 -0.22034771075E+01  0.10875309030E+02  0.00000000000E+00 0. -1.
</event>
<event>
 7    1  0.4119299E-008  0.4614231E+02  0.7816164E-02  0.1320468E+00
        -11   -1    0    0    0    0  0.00000000000E+00  0.00000000000E+00  0.45593999997E+02  0.45594000000E+02  0.51100000000E-03 0.  1.
         11   -1    0    0    0    0 -0.00000000000E+00 -0.00000000000E+00 -0.45593999997E+02  0.45594000000E+02  0.51100000000E-03 0. -1.
    9900012    2    1    2    0    0 -0.31847916810E+02  0.49774770710E+01 -0.31465042602E+02  0.46142312203E+02  0.99999493192E+01 0.  0.
        -12    1    1    2    0    0  0.31847916810E+02 -0.49774770710E+01  0.31465042602E+02  0.45045687797E+02  0.00000000000E+00 0.  1.
         11    1    3    3    0    0 -0.14097911745E+02 -0.27357182518E+00 -0.15799182840E+02  0.21176405166E+02  0.51100000000E-03 0.  1.
        -11    1    3    3    0    0 -0.64870498817E+01 -0.20718210093E+00 -0.79496325883E+01  0.10262621456E+02  0.51100000000E-03 0. -1.
        -12    1    3    3    0    0 -0.11262955184E+02  0.54582309971E+01 -0.77162271740E+01  0.14703285581E+02  0.00000000000E+00 0.  1.
</event>
<event>
 7    1  0.4119299E-008  0.4614232E+02  0.7816164E-02  0.1320468E+00
        -11   -1    0    0    0    0  0.00000000000E+00  0.00000000000E+00  0.45593999997E+02  0.45594000000E+02  0.51100000000E-03 0.  1.
         11   -1    0    0    0    0 -0.00000000000E+00 -0.00000000000E+00 -0.45593999997E+02  0.45594000000E+02  0.51100000000E-03 0. -1.
    9900012    2    1    2    0    0  0.54059727874E+01 -0.17463310245E+02 -0.41169428452E+02  0.46142316682E+02  0.99999901624E+01 0.  0.
        -12    1    1    2    0    0 -0.54059727874E+01  0.17463310245E+02  0.41169428452E+02  0.45045683318E+02  0.00000000000E+00 0.  1.
         11    1    3    3    0    0  0.19745855524E+01 -0.78629329314E+01 -0.24736378559E+02  0.26031003186E+02  0.51100000000E-03 0. -1.
        -11    1    3    3    0    0  0.22123256415E+01 -0.84026106009E+01 -0.16204519332E+02  0.18387079613E+02  0.51100000000E-03 0.  1.
        -12    1    3    3    0    0  0.12190615936E+01 -0.11977667129E+01 -0.22853056107E+00  0.17242338835E+01  0.00000000000E+00 0.  1.
</event>
<event>
 7    1  0.4119299E-008  0.4614232E+02  0.7816164E-02  0.1320468E+00
        -11   -1    0    0    0    0  0.00000000000E+00  0.00000000000E+00  0.45593999997E+02  0.45594000000E+02  0.51100000000E-03 0.  1.
         11   -1    0    0    0    0 -0.00000000000E+00 -0.00000000000E+00 -0.45593999997E+02  0.45594000000E+02  0.51100000000E-03 0. -1.
    9900012    2    1    2    0    0  0.33350635378E+02 -0.13268695363E+02 -0.27217465580E+02  0.46142316640E+02  0.99999897767E+01 0.  0.
        -12    1    1    2    0    0 -0.33350635378E+02  0.13268695363E+02  0.27217465580E+02  0.45045683360E+02  0.00000000000E+00 0.  1.
         11    1    3    3    0    0  0.68267460202E-01 -0.54291044255E+00  0.23759959184E-01  0.54770155335E+00  0.51100000000E-03 0. -1.
        -11    1    3    3    0    0  0.11800482493E+02 -0.70684038751E+01 -0.14496129767E+02  0.19983780895E+02  0.51100000000E-03 0.  1.
        -12    1    3    3    0    0  0.21481885425E+02 -0.56573810455E+01 -0.12745095772E+02  0.25610834191E+02  0.00000000000E+00 0.  1.
</event>
<event>
 7    1  0.4119299E-008  0.4614232E+02  0.7816164E-02  0.1320468E+00
        -11   -1    0    0    0    0  0.00000000000E+00  0.00000000000E+00  0.45593999997E+02  0.45594000000E+02  0.51100000000E-03 0.  1.
         11   -1    0    0    0    0 -0.00000000000E+00 -0.00000000000E+00 -0.45593999997E+02  0.45594000000E+02  0.51100000000E-03 0. -1.
    9900012    2    1    2    0    0  0.68190899453E+01 -0.56017911065E+00 -0.44523024617E+02  0.46142317528E+02  0.99999978706E+01 0.  0.
        -12    1    1    2    0    0 -0.68190899453E+01  0.56017911065E+00  0.44523024617E+02  0.45045682472E+02  0.00000000000E+00 0.  1.
         11    1    3    3    0    0  0.54731544294E+01  0.21857908040E+01 -0.29312951045E+02  0.29899535114E+02  0.51100000000E-03 0. -1.
        -11    1    3    3    0    0  0.12245993008E+01 -0.55972678272E+00 -0.13206119312E+02  0.13274581916E+02  0.51100000000E-03 0.  1.
        -12    1    3    3    0    0  0.12133621513E+00 -0.21862431319E+01 -0.20039542611E+01  0.29682004969E+01  0.00000000000E+00 0.  1.
</event>
<event>
 7    1  0.4119299E-008  0.4614232E+02  0.7816164E-02  0.1320468E+00
        -11   -1    0    0    0    0  0.00000000000E+00  0.00000000000E+00  0.45593999997E+02  0.45594000000E+02  0.51100000000E-03 0.  1.
         11   -1    0    0    0    0 -0.00000000000E+00 -0.00000000000E+00 -0.45593999997E+02  0.45594000000E+02  0.51100000000E-03 0. -1.
    9900012    2    1    2    0    0  0.35856895867E+02 -0.27137548056E+02  0.26362682126E+01  0.46142318677E+02  0.10000008356E+02 0.  0.
        -12    1    1    2    0    0 -0.35856895867E+02  0.27137548056E+02 -0.26362682126E+01  0.45045681323E+02  0.00000000000E+00 0.  1.
         11    1    3    3    0    0  0.14757173005E+02 -0.13144299342E+02  0.96946619441E+00  0.19786020956E+02  0.51100000000E-03 0. -1.
        -11    1    3    3    0    0  0.17431994906E+02 -0.89126833067E+01  0.33620802971E+01  0.19864892507E+02  0.51100000000E-03 0.  1.
         12    1    3    3    0    0  0.36677279557E+01 -0.50805654074E+01 -0.16952782789E+01  0.64914052144E+01  0.00000000000E+00 0. -1.
</event>
<event>
 7    1  0.4119299E-008  0.4614232E+02  0.7816164E-02  0.1320468E+00
        -11   -1    0    0    0    0  0.00000000000E+00  0.00000000000E+00  0.45593999997E+02  0.45594000000E+02  0.51100000000E-03 0.  1.
         11   -1    0    0    0    0 -0.00000000000E+00 -0.00000000000E+00 -0.45593999997E+02  0.45594000000E+02  0.51100000000E-03 0. -1.
    9900012    2    1    2    0    0 -0.13127702107E+01  0.40126394253E+02 -0.20427007148E+02  0.46142317605E+02  0.99999985778E+01 0.  0.
        -12    1    1    2    0    0  0.13127702107E+01 -0.40126394253E+02  0.20427007148E+02  0.45045682395E+02  0.00000000000E+00 0.  1.
         11    1    3    3    0    0  0.89894114402E+00  0.13820495122E+02 -0.87994889517E+01  0.16408692412E+02  0.51100000000E-03 0. -1.
        -11    1    3    3    0    0  0.25245972649E+01  0.12917068710E+02 -0.53922289587E+01  0.14223234119E+02  0.51100000000E-03 0.  1.
         12    1    3    3    0    0 -0.47363086196E+01  0.13388830421E+02 -0.62352892378E+01  0.15510391074E+02  0.00000000000E+00 0. -1.
</event>
<event>
 7    1  0.4119299E-008  0.4614232E+02  0.7816164E-02  0.1320468E+00
        -11   -1    0    0    0    0  0.00000000000E+00  0.00000000000E+00  0.45593999997E+02  0.45594000000E+02  0.51100000000E-03 0. -1.
         11   -1    0    0    0    0 -0.00000000000E+00 -0.00000000000E+00 -0.45593999997E+02  0.45594000000E+02  0.51100000000E-03 0.  1.
    9900012    2    1    2    0    0  0.21632163601E+02  0.38606566065E+02 -0.84080905118E+01  0.46142318393E+02  0.10000005760E+02 0.  0.
        -12    1    1    2    0    0 -0.21632163601E+02 -0.38606566065E+02  0.84080905118E+01  0.45045681607E+02  0.00000000000E+00 0.  1.
         11    1    3    3    0    0  0.64369144397E+01  0.65656746890E+01 -0.28781668014E+01  0.96346144720E+01  0.51100000000E-03 0. -1.
        -11    1    3    3    0    0  0.97473080513E+01  0.22489640220E+02 -0.68051963594E+01  0.25438251300E+02  0.51100000000E-03 0.  1.
         12    1    3    3    0    0  0.54479411100E+01  0.95512511563E+01  0.12752726491E+01  0.11069452620E+02  0.00000000000E+00 0. -1.
</event>
<event>
 7    1  0.4119299E-008  0.4614232E+02  0.7816164E-02  0.1320468E+00
        -11   -1    0    0    0    0  0.00000000000E+00  0.00000000000E+00  0.45593999997E+02  0.45594000000E+02  0.51100000000E-03 0.  1.
         11   -1    0    0    0    0 -0.00000000000E+00 -0.00000000000E+00 -0.45593999997E+02  0.45594000000E+02  0.51100000000E-03 0. -1.
    9900012    2    1    2    0    0  0.30201187800E+02 -0.66499730252E+01 -0.32753314243E+02  0.46142317857E+02  0.10000000876E+02 0.  0.
        -12    1    1    2    0    0 -0.30201187800E+02  0.66499730252E+01  0.32753314243E+02  0.45045682143E+02  0.00000000000E+00 0.  1.
         11    1    3    3    0    0  0.15488848620E+02 -0.38803966069E+01 -0.18915894551E+02  0.24754251682E+02  0.51100000000E-03 0. -1.
        -11    1    3    3    0    0 -0.33647480890E+00  0.67678702470E+00 -0.18290330421E+00  0.77763092380E+00  0.51100000000E-03 0.  1.
         12    1    3    3    0    0  0.15048813989E+02 -0.34463634430E+01 -0.13654516388E+02  0.20610435252E+02  0.00000000000E+00 0. -1.
</event>
<event>
 7    1  0.4119299E-008  0.4614232E+02  0.7816164E-02  0.1320468E+00
        -11   -1    0    0    0    0  0.00000000000E+00  0.00000000000E+00  0.45593999997E+02  0.45594000000E+02  0.51100000000E-03 0.  1.
         11   -1    0    0    0    0 -0.00000000000E+00 -0.00000000000E+00 -0.45593999997E+02  0.45594000000E+02  0.51100000000E-03 0. -1.
    9900012    2    1    2    0    0 -0.39129994591E+02  0.51963112952E+01 -0.21701504562E+02  0.46142318431E+02  0.10000006108E+02 0.  0.
        -12    1    1    2    0    0  0.39129994591E+02 -0.51963112952E+01  0.21701504562E+02  0.45045681569E+02  0.00000000000E+00 0.  1.
         11    1    3    3    0    0 -0.30684569149E+02  0.49293130503E+01 -0.15796814907E+02  0.34862304464E+02  0.51100000000E-03 0. -1.
        -11    1    3    3    0    0 -0.34016996742E+01  0.20378052615E+01 -0.39256811341E+01  0.55798910012E+01  0.51100000000E-03 0.  1.
        -12    1    3    3    0    0 -0.50437257670E+01 -0.17708070166E+01 -0.19790085209E+01  0.57001229661E+01  0.00000000000E+00 0.  1.
</event>
<event>
 7    1  0.4119299E-008  0.4614232E+02  0.7816164E-02  0.1320468E+00
        -11   -1    0    0    0    0  0.00000000000E+00  0.00000000000E+00  0.45593999997E+02  0.45594000000E+02  0.51100000000E-03 0.  1.
         11   -1    0    0    0    0 -0.00000000000E+00 -0.00000000000E+00 -0.45593999997E+02  0.45594000000E+02  0.51100000000E-03 0. -1.
    9900012    2    1    2    0    0  0.23046010703E+02 -0.19266343936E+02 -0.33567884360E+02  0.46142317872E+02  0.10000001014E+02 0.  0.
        -12    1    1    2    0    0 -0.23046010703E+02  0.19266343936E+02  0.33567884360E+02  0.45045682128E+02  0.00000000000E+00 0.  1.
         11    1    3    3    0    0  0.53950512391E+01 -0.47038776539E+01 -0.57455315217E+01  0.91784625936E+01  0.51100000000E-03 0. -1.
        -11    1    3    3    0    0  0.18102216549E+02 -0.13205191111E+02 -0.23768648281E+02  0.32665210204E+02  0.51100000000E-03 0.  1.
        -12    1    3    3    0    0 -0.45125708556E+00 -0.13572751706E+01 -0.40537045570E+01  0.42986450751E+01  0.00000000000E+00 0.  1.
</event>
<event>
 7    1  0.4119299E-008  0.4614232E+02  0.7816164E-02  0.1320468E+00
        -11   -1    0    0    0    0  0.00000000000E+00  0.00000000000E+00  0.45593999997E+02  0.45594000000E+02  0.51100000000E-03 0. -1.
         11   -1    0    0    0    0 -0.00000000000E+00 -0.00000000000E+00 -0.45593999997E+02  0.45594000000E+02  0.51100000000E-03 0.  1.
    9900012    2    1    2    0    0  0.33499432268E+02 -0.18129864062E+02 -0.24045989658E+02  0.46142317057E+02  0.99999935785E+01 0.  0.
        -12    1    1    2    0    0 -0.33499432268E+02  0.18129864062E+02  0.24045989658E+02  0.45045682943E+02  0.00000000000E+00 0.  1.
         11    1    3    3    0    0  0.26688399664E+02 -0.10039442204E+02 -0.18219223589E+02  0.33837866139E+02  0.51100000000E-03 0. -1.
        -11    1    3    3    0    0  0.38074239821E+01 -0.27053233773E+01 -0.25735548229E+01  0.53327700722E+01  0.51100000000E-03 0.  1.
        -12    1    3    3    0    0  0.30036086211E+01 -0.53850984808E+01 -0.32532112462E+01  0.69716808454E+01  0.00000000000E+00 0.  1.
</event>
<event>
 7    1  0.4119299E-008  0.4614232E+02  0.7816164E-02  0.1320468E+00
        -11   -1    0    0    0    0  0.00000000000E+00  0.00000000000E+00  0.45593999997E+02  0.45594000000E+02  0.51100000000E-03 0. -1.
         11   -1    0    0    0    0 -0.00000000000E+00 -0.00000000000E+00 -0.45593999997E+02  0.45594000000E+02  0.51100000000E-03 0.  1.
    9900012    2    1    2    0    0 -0.34583379970E+02 -0.17967545354E+02 -0.22589169596E+02  0.46142318307E+02  0.10000004974E+02 0.  0.
        -12    1    1    2    0    0  0.34583379970E+02  0.17967545354E+02  0.22589169596E+02  0.45045681693E+02  0.00000000000E+00 0.  1.
         11    1    3    3    0    0 -0.11754642682E+02 -0.69874917157E+01 -0.10081888822E+02  0.16989442238E+02  0.51100000000E-03 0.  1.
        -11    1    3    3    0    0 -0.19096210135E+02 -0.62122439083E+01 -0.80524015030E+01  0.21635581483E+02  0.51100000000E-03 0. -1.
        -12    1    3    3    0    0 -0.37325271523E+01 -0.47678097303E+01 -0.44548792707E+01  0.75172945854E+01  0.00000000000E+00 0.  1.
</event>
<event>
 7    1  0.4119299E-008  0.4614232E+02  0.7816164E-02  0.1320468E+00
        -11   -1    0    0    0    0  0.00000000000E+00  0.00000000000E+00  0.45593999997E+02  0.45594000000E+02  0.51100000000E-03 0.  1.
         11   -1    0    0    0    0 -0.00000000000E+00 -0.00000000000E+00 -0.45593999997E+02  0.45594000000E+02  0.51100000000E-03 0. -1.
    9900012    2    1    2    0    0  0.56700000013E+01  0.14667016705E+02 -0.42211883815E+02  0.46142318584E+02  0.10000007505E+02 0.  0.
        -12    1    1    2    0    0 -0.56700000013E+01 -0.14667016705E+02  0.42211883815E+02  0.45045681416E+02  0.00000000000E+00 0.  1.
         11    1    3    3    0    0  0.60376174529E+01  0.14214118156E+02 -0.37109318778E+02  0.40194471260E+02  0.51100000000E-03 0. -1.
        -11    1    3    3    0    0 -0.10677879387E+01  0.13187846268E+01 -0.41461556912E+01  0.44799521483E+01  0.51100000000E-03 0.  1.
         12    1    3    3    0    0  0.70017048710E+00 -0.86588607773E+00 -0.95640934519E+00  0.14678951755E+01  0.00000000000E+00 0. -1.
</event>
<event>
 7    1  0.4119299E-008  0.4614232E+02  0.7816164E-02  0.1320468E+00
        -11   -1    0    0    0    0  0.00000000000E+00  0.00000000000E+00  0.45593999997E+02  0.45594000000E+02  0.51100000000E-03 0.  1.
         11   -1    0    0    0    0 -0.00000000000E+00 -0.00000000000E+00 -0.45593999997E+02  0.45594000000E+02  0.51100000000E-03 0. -1.
    9900012    2    1    2    0    0  0.12734847916E+02 -0.41072752746E+02 -0.13415145088E+02  0.46142317772E+02  0.10000000104E+02 0.  0.
        -12    1    1    2    0    0 -0.12734847916E+02  0.41072752746E+02  0.13415145088E+02  0.45045682228E+02  0.00000000000E+00 0.  1.
         11    1    3    3    0    0  0.75106118009E+01 -0.25775329743E+02 -0.87245423657E+01  0.28229320798E+02  0.51100000000E-03 0. -1.
        -11    1    3    3    0    0 -0.51694892385E+00 -0.58619112125E+01 -0.33913133119E+01  0.67919250212E+01  0.51100000000E-03 0.  1.
        -12    1    3    3    0    0  0.57411850394E+01 -0.94355117911E+01 -0.12992894103E+01  0.11121071953E+02  0.00000000000E+00 0.  1.
</event>
<event>
 7    1  0.4119299E-008  0.4614232E+02  0.7816164E-02  0.1320468E+00
        -11   -1    0    0    0    0  0.00000000000E+00  0.00000000000E+00  0.45593999997E+02  0.45594000000E+02  0.51100000000E-03 0. -1.
         11   -1    0    0    0    0 -0.00000000000E+00 -0.00000000000E+00 -0.45593999997E+02  0.45594000000E+02  0.51100000000E-03 0.  1.
    9900012    2    1    2    0    0  0.28155378517E+02 -0.23999761466E+02  0.25698238904E+02  0.46142319045E+02  0.10000011711E+02 0.  0.
        -12    1    1    2    0    0 -0.28155378517E+02  0.23999761466E+02 -0.25698238904E+02  0.45045680955E+02  0.00000000000E+00 0.  1.
         11    1    3    3    0    0  0.19774341816E+02 -0.12144227001E+02  0.18345668643E+02  0.29581588902E+02  0.51100000000E-03 0. -1.
        -11    1    3    3    0    0  0.59852054880E+01 -0.58378267878E+01  0.42455334302E+01  0.93769643652E+01  0.51100000000E-03 0.  1.
         12    1    3    3    0    0  0.23958312131E+01 -0.60177076774E+01  0.31070368305E+01  0.71837657784E+01  0.00000000000E+00 0. -1.
</event>
<event>
 7    1  0.4119299E-008  0.4614232E+02  0.7816164E-02  0.1320468E+00
        -11   -1    0    0    0    0  0.00000000000E+00  0.00000000000E+00  0.45593999997E+02  0.45594000000E+02  0.51100000000E-03 0.  1.
         11   -1    0    0    0    0 -0.00000000000E+00 -0.00000000000E+00 -0.45593999997E+02  0.45594000000E+02  0.51100000000E-03 0. -1.
    9900012    2    1    2    0    0  0.20714999026E+02  0.36304750499E+02 -0.16791884473E+02  0.46142317881E+02  0.10000001092E+02 0.  0.
        -12    1    1    2    0    0 -0.20714999026E+02 -0.36304750499E+02  0.16791884473E+02  0.45045682119E+02  0.00000000000E+00 0.  1.
         11    1    3    3    0    0  0.46056149549E+01  0.65365728888E+01 -0.42725991285E+01  0.90660673844E+01  0.51100000000E-03 0.  1.
        -11    1    3    3    0    0  0.73296059032E+01  0.74270362162E+01 -0.66201898148E+01  0.12357625302E+02  0.51100000000E-03 0. -1.
        -12    1    3    3    0    0  0.87797781678E+01  0.22341141394E+02 -0.58990955297E+01  0.24718625195E+02  0.00000000000E+00 0.  1.
</event>
<event>
 7    1  0.4119299E-008  0.4614232E+02  0.7816164E-02  0.1320468E+00
        -11   -1    0    0    0    0  0.00000000000E+00  0.00000000000E+00  0.45593999997E+02  0.45594000000E+02  0.51100000000E-03 0.  1.
         11   -1    0    0    0    0 -0.00000000000E+00 -0.00000000000E+00 -0.45593999997E+02  0.45594000000E+02  0.51100000000E-03 0. -1.
    9900012    2    1    2    0    0 -0.13214985756E+02 -0.16367886707E+02 -0.39831770181E+02  0.46142317859E+02  0.10000000894E+02 0.  0.
        -12    1    1    2    0    0  0.13214985756E+02  0.16367886707E+02  0.39831770181E+02  0.45045682141E+02  0.00000000000E+00 0.  1.
         11    1    3    3    0    0 -0.11359469807E+02 -0.16319403997E+02 -0.38793656948E+02  0.43592525974E+02  0.51100000000E-03 0. -1.
        -11    1    3    3    0    0 -0.34966960958E+00  0.53618327456E+00 -0.59692541054E+00  0.87526084492E+00  0.51100000000E-03 0.  1.
         12    1    3    3    0    0 -0.15058463389E+01 -0.58466598381E+00 -0.44118782223E+00  0.16745310399E+01  0.00000000000E+00 0. -1.
</event>
<event>
 7    1  0.4119299E-008  0.4614232E+02  0.7816164E-02  0.1320468E+00
        -11   -1    0    0    0    0  0.00000000000E+00  0.00000000000E+00  0.45593999997E+02  0.45594000000E+02  0.51100000000E-03 0.  1.
         11   -1    0    0    0    0 -0.00000000000E+00 -0.00000000000E+00 -0.45593999997E+02  0.45594000000E+02  0.51100000000E-03 0. -1.
    9900012    2    1    2    0    0  0.74802013463E+01 -0.28342403549E+01 -0.44329754747E+02  0.46142317782E+02  0.10000000191E+02 0.  0.
        -12    1    1    2    0    0 -0.74802013463E+01  0.28342403549E+01  0.44329754747E+02  0.45045682218E+02  0.00000000000E+00 0.  1.
         11    1    3    3    0    0  0.79278307436E+00 -0.26639270036E+01 -0.12237009453E+02  0.12548681711E+02  0.51100000000E-03 0. -1.
        -11    1    3    3    0    0  0.15504650757E+01 -0.34849400737E+01 -0.12060867811E+02  0.12649635642E+02  0.51100000000E-03 0.  1.
        -12    1    3    3    0    0  0.51369531963E+01  0.33146267223E+01 -0.20031877483E+02  0.20944000429E+02  0.00000000000E+00 0.  1.
</event>
<event>
 7    1  0.4119299E-008  0.4614232E+02  0.7816164E-02  0.1320468E+00
        -11   -1    0    0    0    0  0.00000000000E+00  0.00000000000E+00  0.45593999997E+02  0.45594000000E+02  0.51100000000E-03 0.  1.
         11   -1    0    0    0    0 -0.00000000000E+00 -0.00000000000E+00 -0.45593999997E+02  0.45594000000E+02  0.51100000000E-03 0. -1.
    9900012    2    1    2    0    0  0.98513968902E+01  0.17810296931E+01 -0.43919148381E+02  0.46142315612E+02  0.99999804009E+01 0.  0.
        -12    1    1    2    0    0 -0.98513968902E+01 -0.17810296931E+01  0.43919148381E+02  0.45045684388E+02  0.00000000000E+00 0.  1.
         11    1    3    3    0    0  0.77151387118E+00  0.11085429974E+01 -0.83444792495E+01  0.84530725441E+01  0.51100000000E-03 0. -1.
        -11    1    3    3    0    0 -0.12876781515E+01  0.33518910575E+00 -0.10044039505E+02  0.10131791382E+02  0.51100000000E-03 0.  1.
        -12    1    3    3    0    0  0.10367561171E+02  0.33729758987E+00 -0.25530629626E+02  0.27557451686E+02  0.00000000000E+00 0.  1.
</event>
<event>
 7    1  0.4119299E-008  0.4614232E+02  0.7816164E-02  0.1320468E+00
        -11   -1    0    0    0    0  0.00000000000E+00  0.00000000000E+00  0.45593999997E+02  0.45594000000E+02  0.51100000000E-03 0. -1.
         11   -1    0    0    0    0 -0.00000000000E+00 -0.00000000000E+00 -0.45593999997E+02  0.45594000000E+02  0.51100000000E-03 0.  1.
    9900012    2    1    2    0    0 -0.83737978641E+00 -0.44970971548E+02 -0.24543841084E+01  0.46142317763E+02  0.10000000017E+02 0.  0.
        -12    1    1    2    0    0  0.83737978641E+00  0.44970971548E+02  0.24543841084E+01  0.45045682237E+02  0.00000000000E+00 0.  1.
         11    1    3    3    0    0  0.41885601305E+00 -0.72401167894E+01 -0.50744912057E+00  0.72699543572E+01  0.51100000000E-03 0. -1.
        -11    1    3    3    0    0 -0.36601292496E+00 -0.85157914958E+01  0.33670805113E+01  0.91646004655E+01  0.51100000000E-03 0.  1.
        -12    1    3    3    0    0 -0.89022287450E+00 -0.29215063262E+02 -0.53140154992E+01  0.29707762940E+02  0.00000000000E+00 0.  1.
</event>
<event>
 7    1  0.4119299E-008  0.4614232E+02  0.7816164E-02  0.1320468E+00
        -11   -1    0    0    0    0  0.00000000000E+00  0.00000000000E+00  0.45593999997E+02  0.45594000000E+02  0.51100000000E-03 0.  1.
         11   -1    0    0    0    0 -0.00000000000E+00 -0.00000000000E+00 -0.45593999997E+02  0.45594000000E+02  0.51100000000E-03 0. -1.
    9900012    2    1    2    0    0 -0.15245622848E+02 -0.42148701388E+02 -0.44912640547E+01  0.46142317659E+02  0.99999990723E+01 0.  0.
        -12    1    1    2    0    0  0.15245622848E+02  0.42148701388E+02  0.44912640547E+01  0.45045682341E+02  0.00000000000E+00 0.  1.
         11    1    3    3    0    0 -0.68735139649E+01 -0.24741846214E+02 -0.71135985294E+01  0.26645964659E+02  0.51100000000E-03 0. -1.
        -11    1    3    3    0    0 -0.12938230755E+01 -0.26359188715E+01  0.53264644461E+00  0.29842518231E+01  0.51100000000E-03 0.  1.
         12    1    3    3    0    0 -0.70782858079E+01 -0.14770936302E+02  0.20896880301E+01  0.16512101177E+02  0.00000000000E+00 0. -1.
</event>
<event>
 7    1  0.4119299E-008  0.4614232E+02  0.7816164E-02  0.1320468E+00
        -11   -1    0    0    0    0  0.00000000000E+00  0.00000000000E+00  0.45593999997E+02  0.45594000000E+02  0.51100000000E-03 0. -1.
         11   -1    0    0    0    0 -0.00000000000E+00 -0.00000000000E+00 -0.45593999997E+02  0.45594000000E+02  0.51100000000E-03 0.  1.
    9900012    2    1    2    0    0  0.18868436683E+02 -0.18252349980E+02  0.36605292001E+02  0.46142316687E+02  0.99999902042E+01 0.  0.
        -12    1    1    2    0    0 -0.18868436683E+02  0.18252349980E+02 -0.36605292001E+02  0.45045683313E+02  0.00000000000E+00 0.  1.
         11    1    3    3    0    0  0.30792004239E+01 -0.91562314074E+00  0.29611646652E+01  0.43690201901E+01  0.51100000000E-03 0. -1.
        -11    1    3    3    0    0  0.10312496249E+02 -0.13419874504E+02  0.29054984995E+02  0.33624883106E+02  0.51100000000E-03 0.  1.
        -12    1    3    3    0    0  0.54767400103E+01 -0.39168523359E+01  0.45891423411E+01  0.81484133908E+01  0.00000000000E+00 0.  1.
</event>
<event>
 7    1  0.4119299E-008  0.4614232E+02  0.7816164E-02  0.1320468E+00
        -11   -1    0    0    0    0  0.00000000000E+00  0.00000000000E+00  0.45593999997E+02  0.45594000000E+02  0.51100000000E-03 0. -1.
         11   -1    0    0    0    0 -0.00000000000E+00 -0.00000000000E+00 -0.45593999997E+02  0.45594000000E+02  0.51100000000E-03 0.  1.
    9900012    2    1    2    0    0 -0.21425294555E+02 -0.39538149894E+02  0.26086248755E+01  0.46142317992E+02  0.10000002108E+02 0.  0.
        -12    1    1    2    0    0  0.21425294555E+02  0.39538149894E+02 -0.26086248755E+01  0.45045682008E+02  0.00000000000E+00 0.  1.
         11    1    3    3    0    0 -0.16341410780E+02 -0.27129140049E+02  0.36890656437E+01  0.31884810673E+02  0.51100000000E-03 0. -1.
        -11    1    3    3    0    0  0.13156859777E+00  0.30247754937E+00 -0.37522061727E+00  0.49959357135E+00  0.51100000000E-03 0.  1.
        -12    1    3    3    0    0 -0.52154523725E+01 -0.12711487395E+02 -0.70522015091E+00  0.13757913748E+02  0.00000000000E+00 0.  1.
</event>
<event>
 7    1  0.4119299E-008  0.4614231E+02  0.7816164E-02  0.1320468E+00
        -11   -1    0    0    0    0  0.00000000000E+00  0.00000000000E+00  0.45593999997E+02  0.45594000000E+02  0.51100000000E-03 0.  1.
         11   -1    0    0    0    0 -0.00000000000E+00 -0.00000000000E+00 -0.45593999997E+02  0.45594000000E+02  0.51100000000E-03 0. -1.
    9900012    2    1    2    0    0 -0.14806734594E+02 -0.27928501540E+02 -0.32091637877E+02  0.46142314200E+02  0.99999675251E+01 0.  0.
        -12    1    1    2    0    0  0.14806734594E+02  0.27928501540E+02  0.32091637877E+02  0.45045685800E+02  0.00000000000E+00 0.  1.
         11    1    3    3    0    0 -0.58183224930E+01 -0.63291109649E+01 -0.93210580190E+01  0.12680403980E+02  0.51100000000E-03 0. -1.
        -11    1    3    3    0    0 -0.45137183159E+01 -0.10065371818E+02 -0.15775360653E+02  0.19249606928E+02  0.51100000000E-03 0.  1.
        -12    1    3    3    0    0 -0.44746937853E+01 -0.11534018757E+02 -0.69952192049E+01  0.14212303292E+02  0.00000000000E+00 0.  1.
</event>
<event>
 7    1  0.4119299E-008  0.4614232E+02  0.7816164E-02  0.1320468E+00
        -11   -1    0    0    0    0  0.00000000000E+00  0.00000000000E+00  0.45593999997E+02  0.45594000000E+02  0.51100000000E-03 0. -1.
         11   -1    0    0    0    0 -0.00000000000E+00 -0.00000000000E+00 -0.45593999997E+02  0.45594000000E+02  0.51100000000E-03 0.  1.
    9900012    2    1    2    0    0  0.22469402975E+01  0.41905099165E+02  0.16371543054E+02  0.46142317646E+02  0.99999989520E+01 0.  0.
        -12    1    1    2    0    0 -0.22469402975E+01 -0.41905099165E+02 -0.16371543054E+02  0.45045682354E+02  0.00000000000E+00 0.  1.
         11    1    3    3    0    0 -0.33443291103E+01  0.83305434943E+01  0.33772377092E+01  0.95910493125E+01  0.51100000000E-03 0. -1.
        -11    1    3    3    0    0  0.35584652684E+01  0.13199644143E+02  0.46466998437E+01  0.14439013133E+02  0.51100000000E-03 0.  1.
         12    1    3    3    0    0  0.20328041394E+01  0.20374911528E+02  0.83476055010E+01  0.22112255200E+02  0.00000000000E+00 0. -1.
</event>
<event>
 7    1  0.4119299E-008  0.4614232E+02  0.7816164E-02  0.1320468E+00
        -11   -1    0    0    0    0  0.00000000000E+00  0.00000000000E+00  0.45593999997E+02  0.45594000000E+02  0.51100000000E-03 0.  1.
         11   -1    0    0    0    0 -0.00000000000E+00 -0.00000000000E+00 -0.45593999997E+02  0.45594000000E+02  0.51100000000E-03 0. -1.
    9900012    2    1    2    0    0 -0.22851695982E+02  0.30486579127E+02 -0.24030854466E+02  0.46142317826E+02  0.10000000594E+02 0.  0.
        -12    1    1    2    0    0  0.22851695982E+02 -0.30486579127E+02  0.24030854466E+02  0.45045682174E+02  0.00000000000E+00 0.  1.
         11    1    3    3    0    0 -0.92856696173E+01  0.82204712614E+01 -0.81929484235E+01  0.14863519507E+02  0.51100000000E-03 0. -1.
        -11    1    3    3    0    0 -0.96813190271E+01  0.19767232623E+02 -0.14860230795E+02  0.26557444968E+02  0.51100000000E-03 0.  1.
        -12    1    3    3    0    0 -0.38847073380E+01  0.24988752421E+01 -0.97767524755E+00  0.47213533512E+01  0.00000000000E+00 0.  1.
</event>
<event>
 7    1  0.4119299E-008  0.4614232E+02  0.7816164E-02  0.1320468E+00
        -11   -1    0    0    0    0  0.00000000000E+00  0.00000000000E+00  0.45593999997E+02  0.45594000000E+02  0.51100000000E-03 0.  1.
         11   -1    0    0    0    0 -0.00000000000E+00 -0.00000000000E+00 -0.45593999997E+02  0.45594000000E+02  0.51100000000E-03 0. -1.
    9900012    2    1    2    0    0 -0.35756586893E+02 -0.18839086350E+02 -0.19891424953E+02  0.46142317994E+02  0.10000002128E+02 0.  0.
        -12    1    1    2    0    0  0.35756586893E+02  0.18839086350E+02  0.19891424953E+02  0.45045682006E+02  0.00000000000E+00 0.  1.
         11    1    3    3    0    0 -0.12097282254E+01 -0.31574929912E+01 -0.91305375253E+00  0.35024094257E+01  0.51100000000E-03 0. -1.
        -11    1    3    3    0    0 -0.72518038813E+01 -0.50362991063E+01 -0.34272885790E+01  0.94709701449E+01  0.51100000000E-03 0.  1.
         12    1    3    3    0    0 -0.27295054786E+02 -0.10645294252E+02 -0.15551082621E+02  0.33168938424E+02  0.00000000000E+00 0. -1.
</event>
<event>
 7    1  0.4119299E-008  0.4614232E+02  0.7816164E-02  0.1320468E+00
        -11   -1    0    0    0    0  0.00000000000E+00  0.00000000000E+00  0.45593999997E+02  0.45594000000E+02  0.51100000000E-03 0.  1.
         11   -1    0    0    0    0 -0.00000000000E+00 -0.00000000000E+00 -0.45593999997E+02  0.45594000000E+02  0.51100000000E-03 0. -1.
    9900012    2    1    2    0    0  0.10721816336E+02 -0.31766947641E+02 -0.30083503994E+02  0.46142317404E+02  0.99999967428E+01 0.  0.
        -12    1    1    2    0    0 -0.10721816336E+02  0.31766947641E+02  0.30083503994E+02  0.45045682596E+02  0.00000000000E+00 0.  1.
         11    1    3    3    0    0  0.36911041291E+01 -0.16409184980E+02 -0.17744291521E+02  0.24448833985E+02  0.51100000000E-03 0. -1.
        -11    1    3    3    0    0  0.18037875244E+01 -0.10662291270E+02 -0.76512149823E+01  0.13246856062E+02  0.51100000000E-03 0.  1.
        -12    1    3    3    0    0  0.52269246830E+01 -0.46954713900E+01 -0.46879974913E+01  0.84466273562E+01  0.00000000000E+00 0.  1.
</event>
<event>
 7    1  0.4119299E-008  0.4614232E+02  0.7816164E-02  0.1320468E+00
        -11   -1    0    0    0    0  0.00000000000E+00  0.00000000000E+00  0.45593999997E+02  0.45594000000E+02  0.51100000000E-03 0. -1.
         11   -1    0    0    0    0 -0.00000000000E+00 -0.00000000000E+00 -0.45593999997E+02  0.45594000000E+02  0.51100000000E-03 0.  1.
    9900012    2    1    2    0    0 -0.30690808149E+00 -0.15389173423E+02  0.42334295565E+02  0.46142318385E+02  0.10000005685E+02 0.  0.
        -12    1    1    2    0    0  0.30690808149E+00  0.15389173423E+02 -0.42334295565E+02  0.45045681615E+02  0.00000000000E+00 0.  1.
         11    1    3    3    0    0 -0.18703684181E+00 -0.76258340535E+01  0.14565737631E+02  0.16442294268E+02  0.51100000000E-03 0. -1.
        -11    1    3    3    0    0 -0.26670956315E+01 -0.11433488130E+01  0.12952457177E+02  0.13273537313E+02  0.51100000000E-03 0.  1.
         12    1    3    3    0    0  0.25472243918E+01 -0.66199905560E+01  0.14816100757E+02  0.16426486803E+02  0.00000000000E+00 0. -1.
</event>
<event>
 7    1  0.4119299E-008  0.4614233E+02  0.7816164E-02  0.1320468E+00
        -11   -1    0    0    0    0  0.00000000000E+00  0.00000000000E+00  0.45593999997E+02  0.45594000000E+02  0.51100000000E-03 0.  1.
         11   -1    0    0    0    0 -0.00000000000E+00 -0.00000000000E+00 -0.45593999997E+02  0.45594000000E+02  0.51100000000E-03 0. -1.
    9900012    2    1    2    0    0  0.24591412212E+02  0.50618390956E+01 -0.37399905867E+02  0.46142326196E+02  0.10000076913E+02 0.  0.
        -12    1    1    2    0    0 -0.24591412212E+02 -0.50618390956E+01  0.37399905867E+02  0.45045673804E+02  0.00000000000E+00 0.  1.
         11    1    3    3    0    0  0.15012334306E+02  0.64648819159E+00 -0.14958823327E+02  0.21202700863E+02  0.51100000000E-03 0. -1.
        -11    1    3    3    0    0  0.40092542069E+01  0.29754948137E+01 -0.12397601354E+02  0.13365186429E+02  0.51100000000E-03 0.  1.
         12    1    3    3    0    0  0.55698236991E+01  0.14398560903E+01 -0.10043481186E+02  0.11574438904E+02  0.00000000000E+00 0. -1.
</event>
<event>
 7    1  0.4119299E-008  0.4614232E+02  0.7816164E-02  0.1320468E+00
        -11   -1    0    0    0    0  0.00000000000E+00  0.00000000000E+00  0.45593999997E+02  0.45594000000E+02  0.51100000000E-03 0.  1.
         11   -1    0    0    0    0 -0.00000000000E+00 -0.00000000000E+00 -0.45593999997E+02  0.45594000000E+02  0.51100000000E-03 0. -1.
    9900012    2    1    2    0    0 -0.14326842691E+02 -0.38487019824E+02 -0.18509571251E+02  0.46142319360E+02  0.10000014576E+02 0.  0.
        -12    1    1    2    0    0  0.14326842691E+02  0.38487019824E+02  0.18509571251E+02  0.45045680640E+02  0.00000000000E+00 0.  1.
         11    1    3    3    0    0 -0.16093128012E+01 -0.60100894010E+01 -0.14522467627E+01  0.63890596508E+01  0.51100000000E-03 0. -1.
        -11    1    3    3    0    0 -0.23519770024E+01 -0.54466120962E+01 -0.68377138746E+01  0.90527184004E+01  0.51100000000E-03 0.  1.
        -12    1    3    3    0    0 -0.10365552887E+02 -0.27030318327E+02 -0.10219610614E+02  0.30700541308E+02  0.00000000000E+00 0.  1.
</event>
<event>
 7    1  0.4119299E-008  0.4614232E+02  0.7816164E-02  0.1320468E+00
        -11   -1    0    0    0    0  0.00000000000E+00  0.00000000000E+00  0.45593999997E+02  0.45594000000E+02  0.51100000000E-03 0. -1.
         11   -1    0    0    0    0 -0.00000000000E+00 -0.00000000000E+00 -0.45593999997E+02  0.45594000000E+02  0.51100000000E-03 0.  1.
    9900012    2    1    2    0    0 -0.15636472682E+02 -0.66955860104E+01  0.41710709838E+02  0.46142318019E+02  0.10000002348E+02 0.  0.
        -12    1    1    2    0    0  0.15636472682E+02  0.66955860104E+01 -0.41710709838E+02  0.45045681981E+02  0.00000000000E+00 0.  1.
         11    1    3    3    0    0 -0.40915373935E+01 -0.32250096955E+01  0.13615789415E+02  0.14578445988E+02  0.51100000000E-03 0. -1.
        -11    1    3    3    0    0 -0.51255769971E+01 -0.41727879276E+01  0.20782774639E+02  0.21808425450E+02  0.51100000000E-03 0.  1.
        -12    1    3    3    0    0 -0.64193582909E+01  0.70221161265E+00  0.73121457849E+01  0.97554465810E+01  0.00000000000E+00 0.  1.
</event>
<event>
 7    1  0.4119299E-008  0.4614232E+02  0.7816164E-02  0.1320468E+00
        -11   -1    0    0    0    0  0.00000000000E+00  0.00000000000E+00  0.45593999997E+02  0.45594000000E+02  0.51100000000E-03 0.  1.
         11   -1    0    0    0    0 -0.00000000000E+00 -0.00000000000E+00 -0.45593999997E+02  0.45594000000E+02  0.51100000000E-03 0. -1.
    9900012    2    1    2    0    0  0.33395066375E+02  0.24645607301E+01 -0.30129870368E+02  0.46142316454E+02  0.99999880785E+01 0.  0.
        -12    1    1    2    0    0 -0.33395066375E+02 -0.24645607301E+01  0.30129870368E+02  0.45045683546E+02  0.00000000000E+00 0.  1.
         11    1    3    3    0    0  0.11735542400E+02  0.32829919425E+01 -0.79546129747E+01  0.14552555080E+02  0.51100000000E-03 0. -1.
        -11    1    3    3    0    0  0.47449292264E+01 -0.17590070674E+01 -0.25582726264E+01  0.56703807914E+01  0.51100000000E-03 0.  1.
         12    1    3    3    0    0  0.16914594748E+02  0.94057585497E+00 -0.19616984766E+02  0.25919380582E+02  0.00000000000E+00 0. -1.
</event>
<event>
 7    1  0.4119299E-008  0.4614232E+02  0.7816164E-02  0.1320468E+00
        -11   -1    0    0    0    0  0.00000000000E+00  0.00000000000E+00  0.45593999997E+02  0.45594000000E+02  0.51100000000E-03 0.  1.
         11   -1    0    0    0    0 -0.00000000000E+00 -0.00000000000E+00 -0.45593999997E+02  0.45594000000E+02  0.51100000000E-03 0. -1.
    9900012    2    1    2    0    0 -0.38699374960E+00  0.33319639509E+02 -0.30311143001E+02  0.46142317286E+02  0.99999956653E+01 0.  0.
        -12    1    1    2    0    0  0.38699374960E+00 -0.33319639509E+02  0.30311143001E+02  0.45045682714E+02  0.00000000000E+00 0.  1.
         11    1    3    3    0    0 -0.22884272285E+01  0.34742872596E+01 -0.44615365916E+01  0.61002360743E+01  0.51100000000E-03 0. -1.
        -11    1    3    3    0    0 -0.13066421093E+01  0.14516665302E+02 -0.94770500315E+01  0.17385492880E+02  0.51100000000E-03 0.  1.
         12    1    3    3    0    0  0.32080755882E+01  0.15328686947E+02 -0.16372556378E+02  0.22656588332E+02  0.00000000000E+00 0. -1.
</event>
<event>
 7    1  0.4119299E-008  0.4614232E+02  0.7816164E-02  0.1320468E+00
        -11   -1    0    0    0    0  0.00000000000E+00  0.00000000000E+00  0.45593999997E+02  0.45594000000E+02  0.51100000000E-03 0.  1.
         11   -1    0    0    0    0 -0.00000000000E+00 -0.00000000000E+00 -0.45593999997E+02  0.45594000000E+02  0.51100000000E-03 0. -1.
    9900012    2    1    2    0    0  0.18961928693E+02  0.25651024253E+02 -0.31805403684E+02  0.46142317760E+02  0.99999999887E+01 0.  0.
        -12    1    1    2    0    0 -0.18961928693E+02 -0.25651024253E+02  0.31805403684E+02  0.45045682240E+02  0.00000000000E+00 0.  1.
         11    1    3    3    0    0  0.99883169152E+01  0.11666132731E+02 -0.16835620124E+02  0.22788225752E+02  0.51100000000E-03 0. -1.
        -11    1    3    3    0    0  0.96251279581E+01  0.10217066853E+02 -0.12549543367E+02  0.18828770068E+02  0.51100000000E-03 0.  1.
        -12    1    3    3    0    0 -0.65151618065E+00  0.37678246691E+01 -0.24202401932E+01  0.45253219403E+01  0.00000000000E+00 0.  1.
</event>
<event>
 7    1  0.4119299E-008  0.4614232E+02  0.7816164E-02  0.1320468E+00
        -11   -1    0    0    0    0  0.00000000000E+00  0.00000000000E+00  0.45593999997E+02  0.45594000000E+02  0.51100000000E-03 0. -1.
         11   -1    0    0    0    0 -0.00000000000E+00 -0.00000000000E+00 -0.45593999997E+02  0.45594000000E+02  0.51100000000E-03 0.  1.
    9900012    2    1    2    0    0  0.42594394097E+01  0.44807852284E+02  0.17964059884E+01  0.46142317356E+02  0.99999963101E+01 0.  0.
        -12    1    1    2    0    0 -0.42594394097E+01 -0.44807852284E+02 -0.17964059884E+01  0.45045682644E+02  0.00000000000E+00 0.  1.
         11    1    3    3    0    0  0.74379116092E+00  0.33646531748E+00  0.17272259396E+00  0.83442648359E+00  0.51100000000E-03 0. -1.
        -11    1    3    3    0    0 -0.15800686030E+01  0.27823295534E+02  0.10596513602E+01  0.27888263704E+02  0.51100000000E-03 0.  1.
        -12    1    3    3    0    0  0.50957168518E+01  0.16648091432E+02  0.56403203417E+00  0.17419627169E+02  0.00000000000E+00 0.  1.
</event>
<event>
 7    1  0.4119299E-008  0.4614232E+02  0.7816164E-02  0.1320468E+00
        -11   -1    0    0    0    0  0.00000000000E+00  0.00000000000E+00  0.45593999997E+02  0.45594000000E+02  0.51100000000E-03 0.  1.
         11   -1    0    0    0    0 -0.00000000000E+00 -0.00000000000E+00 -0.45593999997E+02  0.45594000000E+02  0.51100000000E-03 0. -1.
    9900012    2    1    2    0    0  0.44787072246E+02  0.47855941432E+01  0.57410657367E+00  0.46142319296E+02  0.10000013998E+02 0.  0.
        -12    1    1    2    0    0 -0.44787072246E+02 -0.47855941432E+01 -0.57410657367E+00  0.45045680704E+02  0.00000000000E+00 0.  1.
         11    1    3    3    0    0  0.24812964968E+02  0.18899904268E-01 -0.23746367846E+01  0.24926341244E+02  0.51100000000E-03 0. -1.
        -11    1    3    3    0    0  0.61128346282E+01  0.17127155187E+01  0.30017638643E+01  0.70221597959E+01  0.51100000000E-03 0.  1.
         12    1    3    3    0    0  0.13861272650E+02  0.30539787202E+01 -0.53020506068E-01  0.14193818256E+02  0.00000000000E+00 0. -1.
</event>
<event>
 7    1  0.4119299E-008  0.4614232E+02  0.7816164E-02  0.1320468E+00
        -11   -1    0    0    0    0  0.00000000000E+00  0.00000000000E+00  0.45593999997E+02  0.45594000000E+02  0.51100000000E-03 0. -1.
         11   -1    0    0    0    0 -0.00000000000E+00 -0.00000000000E+00 -0.45593999997E+02  0.45594000000E+02  0.51100000000E-03 0.  1.
    9900012    2    1    2    0    0 -0.21482979977E+02 -0.38898159089E+02  0.73843296078E+01  0.46142317266E+02  0.99999954831E+01 0.  0.
        -12    1    1    2    0    0  0.21482979977E+02  0.38898159089E+02 -0.73843296078E+01  0.45045682734E+02  0.00000000000E+00 0.  1.
         11    1    3    3    0    0 -0.72217436129E+01 -0.94190749848E+01  0.48716389965E+01  0.12829864425E+02  0.51100000000E-03 0. -1.
        -11    1    3    3    0    0 -0.12190181727E+02 -0.24519537124E+02  0.41469783757E+01  0.27694867056E+02  0.51100000000E-03 0.  1.
        -12    1    3    3    0    0 -0.20710546370E+01 -0.49595469802E+01 -0.16342877644E+01  0.56175857853E+01  0.00000000000E+00 0.  1.
</event>
<event>
 7    1  0.4119299E-008  0.4614232E+02  0.7816164E-02  0.1320468E+00
        -11   -1    0    0    0    0  0.00000000000E+00  0.00000000000E+00  0.45593999997E+02  0.45594000000E+02  0.51100000000E-03 0. -1.
         11   -1    0    0    0    0 -0.00000000000E+00 -0.00000000000E+00 -0.45593999997E+02  0.45594000000E+02  0.51100000000E-03 0.  1.
    9900012    2    1    2    0    0  0.36379985104E+01  0.23591320822E+02  0.38201154114E+02  0.46142316223E+02  0.99999859705E+01 0.  0.
        -12    1    1    2    0    0 -0.36379985104E+01 -0.23591320822E+02 -0.38201154114E+02  0.45045683777E+02  0.00000000000E+00 0.  1.
         11    1    3    3    0    0  0.22726958981E+01  0.79534106411E+01  0.14015325137E+02  0.16274250411E+02  0.51100000000E-03 0. -1.
        -11    1    3    3    0    0  0.41099895319E+01  0.63902796476E+01  0.13349255760E+02  0.15360023357E+02  0.51100000000E-03 0.  1.
         12    1    3    3    0    0 -0.27446869196E+01  0.92476305335E+01  0.10836573217E+02  0.14508042455E+02  0.00000000000E+00 0. -1.
</event>
<event>
 7    1  0.4119299E-008  0.4614232E+02  0.7816164E-02  0.1320468E+00
        -11   -1    0    0    0    0  0.00000000000E+00  0.00000000000E+00  0.45593999997E+02  0.45594000000E+02  0.51100000000E-03 0. -1.
         11   -1    0    0    0    0 -0.00000000000E+00 -0.00000000000E+00 -0.45593999997E+02  0.45594000000E+02  0.51100000000E-03 0.  1.
    9900012    2    1    2    0    0 -0.37748772514E+02 -0.12085452916E+02  0.21402933329E+02  0.46142317037E+02  0.99999933975E+01 0.  0.
        -12    1    1    2    0    0  0.37748772514E+02  0.12085452916E+02 -0.21402933329E+02  0.45045682963E+02  0.00000000000E+00 0.  1.
         11    1    3    3    0    0 -0.11534425771E+02 -0.28446854861E+01  0.78684652714E+01  0.14249489793E+02  0.51100000000E-03 0. -1.
        -11    1    3    3    0    0 -0.57953954647E+01  0.11969731479E+01  0.33590620642E+01  0.68046051701E+01  0.51100000000E-03 0.  1.
         12    1    3    3    0    0 -0.20418951278E+02 -0.10437740578E+02  0.10175405994E+02  0.25088222074E+02  0.00000000000E+00 0. -1.
</event>
<event>
 7    1  0.4119299E-008  0.4614232E+02  0.7816164E-02  0.1320468E+00
        -11   -1    0    0    0    0  0.00000000000E+00  0.00000000000E+00  0.45593999997E+02  0.45594000000E+02  0.51100000000E-03 0.  1.
         11   -1    0    0    0    0 -0.00000000000E+00 -0.00000000000E+00 -0.45593999997E+02  0.45594000000E+02  0.51100000000E-03 0. -1.
    9900012    2    1    2    0    0  0.44923277623E+01 -0.33019932030E+02 -0.30308691372E+02  0.46142315493E+02  0.99999793177E+01 0.  0.
        -12    1    1    2    0    0 -0.44923277623E+01  0.33019932030E+02  0.30308691372E+02  0.45045684507E+02  0.00000000000E+00 0.  1.
         11    1    3    3    0    0 -0.33570157269E+00 -0.10402758182E+02 -0.11497368558E+02  0.15508692961E+02  0.51100000000E-03 0. -1.
        -11    1    3    3    0    0  0.63368009041E+01 -0.13919893862E+02 -0.12919290791E+02  0.20020653477E+02  0.51100000000E-03 0.  1.
         12    1    3    3    0    0 -0.15087715692E+01 -0.86972799864E+01 -0.58920320230E+01  0.10612969055E+02  0.00000000000E+00 0. -1.
</event>
<event>
 7    1  0.4119299E-008  0.4614232E+02  0.7816164E-02  0.1320468E+00
        -11   -1    0    0    0    0  0.00000000000E+00  0.00000000000E+00  0.45593999997E+02  0.45594000000E+02  0.51100000000E-03 0. -1.
         11   -1    0    0    0    0 -0.00000000000E+00 -0.00000000000E+00 -0.45593999997E+02  0.45594000000E+02  0.51100000000E-03 0.  1.
    9900012    2    1    2    0    0 -0.30267493047E+02  0.32064078023E+02  0.92134247991E+01  0.46142318395E+02  0.10000005776E+02 0.  0.
        -12    1    1    2    0    0  0.30267493047E+02 -0.32064078023E+02 -0.92134247991E+01  0.45045681605E+02  0.00000000000E+00 0.  1.
         11    1    3    3    0    0 -0.14587933113E+01  0.27153764617E+01  0.22909652394E+01  0.38405558507E+01  0.51100000000E-03 0.  1.
        -11    1    3    3    0    0 -0.36642949840E+01  0.73853246457E+01  0.25549243642E+01  0.86312059771E+01  0.51100000000E-03 0. -1.
         12    1    3    3    0    0 -0.25144404751E+02  0.21963376915E+02  0.43675351955E+01  0.33670556567E+02  0.00000000000E+00 0. -1.
</event>
<event>
 7    1  0.4119299E-008  0.4614231E+02  0.7816164E-02  0.1320468E+00
        -11   -1    0    0    0    0  0.00000000000E+00  0.00000000000E+00  0.45593999997E+02  0.45594000000E+02  0.51100000000E-03 0. -1.
         11   -1    0    0    0    0 -0.00000000000E+00 -0.00000000000E+00 -0.45593999997E+02  0.45594000000E+02  0.51100000000E-03 0.  1.
    9900012    2    1    2    0    0 -0.21590432817E+02  0.39063579607E+02  0.60830906591E+01  0.46142311717E+02  0.99999448822E+01 0.  0.
        -12    1    1    2    0    0  0.21590432817E+02 -0.39063579607E+02 -0.60830906591E+01  0.45045688283E+02  0.00000000000E+00 0.  1.
         11    1    3    3    0    0 -0.62192708579E+01  0.55748440013E+01  0.31618540878E+01  0.89305955667E+01  0.51100000000E-03 0. -1.
        -11    1    3    3    0    0 -0.48538697155E+01  0.80237487274E+01 -0.79281993520E+00  0.94111188796E+01  0.51100000000E-03 0.  1.
         12    1    3    3    0    0 -0.10517292243E+02  0.25464986878E+02  0.37140565064E+01  0.27800597270E+02  0.00000000000E+00 0. -1.
</event>
<event>
 7    1  0.4119299E-008  0.4614232E+02  0.7816164E-02  0.1320468E+00
        -11   -1    0    0    0    0  0.00000000000E+00  0.00000000000E+00  0.45593999997E+02  0.45594000000E+02  0.51100000000E-03 0.  1.
         11   -1    0    0    0    0 -0.00000000000E+00 -0.00000000000E+00 -0.45593999997E+02  0.45594000000E+02  0.51100000000E-03 0. -1.
    9900012    2    1    2    0    0  0.44251483887E+02 -0.34546819566E+01  0.76801602754E+01  0.46142317460E+02  0.99999972563E+01 0.  0.
        -12    1    1    2    0    0 -0.44251483887E+02  0.34546819566E+01 -0.76801602754E+01  0.45045682540E+02  0.00000000000E+00 0.  1.
         11    1    3    3    0    0  0.41691886169E+01  0.20905630320E+00 -0.49385573111E-02  0.41744296510E+01  0.51100000000E-03 0. -1.
        -11    1    3    3    0    0  0.29398936640E+02  0.11000537086E+01  0.70548882505E+01  0.30253578999E+02  0.51100000000E-03 0.  1.
         12    1    3    3    0    0  0.10683358630E+02 -0.47637919683E+01  0.63021058228E+00  0.11714308811E+02  0.00000000000E+00 0. -1.
</event>
<event>
 7    1  0.4119299E-008  0.4614232E+02  0.7816164E-02  0.1320468E+00
        -11   -1    0    0    0    0  0.00000000000E+00  0.00000000000E+00  0.45593999997E+02  0.45594000000E+02  0.51100000000E-03 0. -1.
         11   -1    0    0    0    0 -0.00000000000E+00 -0.00000000000E+00 -0.45593999997E+02  0.45594000000E+02  0.51100000000E-03 0.  1.
    9900012    2    1    2    0    0  0.38950895694E+02 -0.20812457804E+02 -0.88759509954E+01  0.46142321170E+02  0.10000031082E+02 0.  0.
        -12    1    1    2    0    0 -0.38950895694E+02  0.20812457804E+02  0.88759509954E+01  0.45045678830E+02  0.00000000000E+00 0.  1.
         11    1    3    3    0    0  0.55507841242E+01 -0.59597434172E+01 -0.12771204581E+01  0.82438330234E+01  0.51100000000E-03 0. -1.
        -11    1    3    3    0    0  0.21609258845E+02 -0.10297312721E+02 -0.18391685437E+01  0.24007858261E+02  0.51100000000E-03 0.  1.
        -12    1    3    3    0    0  0.11790852725E+02 -0.45554016655E+01 -0.57596619936E+01  0.13890629885E+02  0.00000000000E+00 0.  1.
</event>
<event>
 7    1  0.4119299E-008  0.4614232E+02  0.7816164E-02  0.1320468E+00
        -11   -1    0    0    0    0  0.00000000000E+00  0.00000000000E+00  0.45593999997E+02  0.45594000000E+02  0.51100000000E-03 0.  1.
         11   -1    0    0    0    0 -0.00000000000E+00 -0.00000000000E+00 -0.45593999997E+02  0.45594000000E+02  0.51100000000E-03 0. -1.
    9900012    2    1    2    0    0  0.25769965788E+02  0.36847059268E+02  0.27049224127E+01  0.46142317425E+02  0.99999969311E+01 0.  0.
        -12    1    1    2    0    0 -0.25769965788E+02 -0.36847059268E+02 -0.27049224127E+01  0.45045682575E+02  0.00000000000E+00 0.  1.
         11    1    3    3    0    0  0.37851571486E+01  0.10426184744E+02  0.15891126025E+01  0.11205267604E+02  0.51100000000E-03 0. -1.
        -11    1    3    3    0    0  0.92974082987E+01  0.15974474445E+02  0.75059670344E+00  0.18498352103E+02  0.51100000000E-03 0.  1.
        -12    1    3    3    0    0  0.12687400341E+02  0.10446400079E+02  0.36521310676E+00  0.16438697717E+02  0.00000000000E+00 0.  1.
</event>
<event>
 7    1  0.4119299E-008  0.4614232E+02  0.7816164E-02  0.1320468E+00
        -11   -1    0    0    0    0  0.00000000000E+00  0.00000000000E+00  0.45593999997E+02  0.45594000000E+02  0.51100000000E-03 0.  1.
         11   -1    0    0    0    0 -0.00000000000E+00 -0.00000000000E+00 -0.45593999997E+02  0.45594000000E+02  0.51100000000E-03 0. -1.
    9900012    2    1    2    0    0 -0.30404687756E+02  0.10833858836E+02 -0.31421262881E+02  0.46142319898E+02  0.10000019482E+02 0.  0.
        -12    1    1    2    0    0  0.30404687756E+02 -0.10833858836E+02  0.31421262881E+02  0.45045680102E+02  0.00000000000E+00 0.  1.
         11    1    3    3    0    0 -0.18492220478E+02  0.62348515983E+01 -0.22701216219E+02  0.29936279173E+02  0.51100000000E-03 0. -1.
        -11    1    3    3    0    0 -0.50863031466E+01  0.42854364559E+01 -0.30072265372E+01  0.72992367426E+01  0.51100000000E-03 0.  1.
         12    1    3    3    0    0 -0.68261641319E+01  0.31357078176E+00 -0.57128201252E+01  0.89068039820E+01  0.00000000000E+00 0. -1.
</event>
<event>
 7    1  0.4119299E-008  0.4614232E+02  0.7816164E-02  0.1320468E+00
        -11   -1    0    0    0    0  0.00000000000E+00  0.00000000000E+00  0.45593999997E+02  0.45594000000E+02  0.51100000000E-03 0.  1.
         11   -1    0    0    0    0 -0.00000000000E+00 -0.00000000000E+00 -0.45593999997E+02  0.45594000000E+02  0.51100000000E-03 0. -1.
    9900012    2    1    2    0    0 -0.10082174512E+02 -0.36762177553E+02 -0.24000113568E+02  0.46142318824E+02  0.10000009692E+02 0.  0.
        -12    1    1    2    0    0  0.10082174512E+02  0.36762177553E+02  0.24000113568E+02  0.45045681176E+02  0.00000000000E+00 0.  1.
         11    1    3    3    0    0 -0.61572678897E+00 -0.54669865121E+01 -0.12453127580E+01  0.56407326766E+01  0.51100000000E-03 0. -1.
        -11    1    3    3    0    0 -0.89917625614E+00 -0.92916528094E-01  0.66234715172E-01  0.90638773128E+00  0.51100000000E-03 0.  1.
        -12    1    3    3    0    0 -0.85672714674E+01 -0.31202274513E+02 -0.22821035525E+02  0.39595198416E+02  0.00000000000E+00 0.  1.
</event>
<event>
 7    1  0.4119299E-008  0.4614231E+02  0.7816164E-02  0.1320468E+00
        -11   -1    0    0    0    0  0.00000000000E+00  0.00000000000E+00  0.45593999997E+02  0.45594000000E+02  0.51100000000E-03 0. -1.
         11   -1    0    0    0    0 -0.00000000000E+00 -0.00000000000E+00 -0.45593999997E+02  0.45594000000E+02  0.51100000000E-03 0.  1.
    9900012    2    1    2    0    0  0.13281153890E+02 -0.26435158074E+02  0.33969211708E+02  0.46142312358E+02  0.99999507278E+01 0.  0.
        -12    1    1    2    0    0 -0.13281153890E+02  0.26435158074E+02 -0.33969211708E+02  0.45045687642E+02  0.00000000000E+00 0.  1.
         11    1    3    3    0    0  0.91555636419E+01 -0.22033750387E+02  0.28911367920E+02  0.37485699900E+02  0.51100000000E-03 0. -1.
        -11    1    3    3    0    0  0.16229232419E+01 -0.33532532299E+01  0.11492993733E+01  0.38985992848E+01  0.51100000000E-03 0.  1.
         12    1    3    3    0    0  0.25026670064E+01 -0.10481544579E+01  0.39085444151E+01  0.47580131733E+01  0.00000000000E+00 0. -1.
</event>
<event>
 7    1  0.4119299E-008  0.4614231E+02  0.7816164E-02  0.1320468E+00
        -11   -1    0    0    0    0  0.00000000000E+00  0.00000000000E+00  0.45593999997E+02  0.45594000000E+02  0.51100000000E-03 0.  1.
         11   -1    0    0    0    0 -0.00000000000E+00 -0.00000000000E+00 -0.45593999997E+02  0.45594000000E+02  0.51100000000E-03 0. -1.
    9900012    2    1    2    0    0  0.41668129910E+01  0.33653695963E+02 -0.29650972728E+02  0.46142314677E+02  0.99999718760E+01 0.  0.
        -12    1    1    2    0    0 -0.41668129910E+01 -0.33653695963E+02  0.29650972728E+02  0.45045685323E+02  0.00000000000E+00 0.  1.
         11    1    3    3    0    0  0.38537174572E+01  0.22760516675E+02 -0.24716536059E+02  0.33820103674E+02  0.51100000000E-03 0. -1.
        -11    1    3    3    0    0  0.66327597989E+00  0.42951225258E+00 -0.59426040538E+00  0.98871709358E+00  0.51100000000E-03 0.  1.
         12    1    3    3    0    0 -0.35018044615E+00  0.10463667036E+02 -0.43401762644E+01  0.11333493909E+02  0.00000000000E+00 0. -1.
</event>
<event>
 7    1  0.4119299E-008  0.4614232E+02  0.7816164E-02  0.1320468E+00
        -11   -1    0    0    0    0  0.00000000000E+00  0.00000000000E+00  0.45593999997E+02  0.45594000000E+02  0.51100000000E-03 0.  1.
         11   -1    0    0    0    0 -0.00000000000E+00 -0.00000000000E+00 -0.45593999997E+02  0.45594000000E+02  0.51100000000E-03 0. -1.
    9900012    2    1    2    0    0 -0.41491945352E+01 -0.16704792692E+02 -0.41627485937E+02  0.46142317637E+02  0.99999988658E+01 0.  0.
        -12    1    1    2    0    0  0.41491945352E+01  0.16704792692E+02  0.41627485937E+02  0.45045682363E+02  0.00000000000E+00 0.  1.
         11    1    3    3    0    0 -0.13718263146E+01 -0.24987585314E+01 -0.63888623205E+01  0.69959462296E+01  0.51100000000E-03 0. -1.
        -11    1    3    3    0    0 -0.59268251136E+01 -0.91657445128E+01 -0.19906031148E+02  0.22702162997E+02  0.51100000000E-03 0.  1.
         12    1    3    3    0    0  0.31494568930E+01 -0.50402896475E+01 -0.15332592468E+02  0.16444208410E+02  0.00000000000E+00 0. -1.
</event>
<event>
 7    1  0.4119299E-008  0.4614232E+02  0.7816164E-02  0.1320468E+00
        -11   -1    0    0    0    0  0.00000000000E+00  0.00000000000E+00  0.45593999997E+02  0.45594000000E+02  0.51100000000E-03 0.  1.
         11   -1    0    0    0    0 -0.00000000000E+00 -0.00000000000E+00 -0.45593999997E+02  0.45594000000E+02  0.51100000000E-03 0. -1.
    9900012    2    1    2    0    0 -0.81090747239E+01  0.38434813484E+02 -0.22048164481E+02  0.46142317216E+02  0.99999950323E+01 0.  0.
        -12    1    1    2    0    0  0.81090747239E+01 -0.38434813484E+02  0.22048164481E+02  0.45045682784E+02  0.00000000000E+00 0.  1.
         11    1    3    3    0    0 -0.42721120188E+01  0.23848836039E+02 -0.16719169146E+02  0.29437196516E+02  0.51100000000E-03 0. -1.
        -11    1    3    3    0    0 -0.42163486555E+01  0.65676906066E+01 -0.26903419909E+01  0.82553071523E+01  0.51100000000E-03 0.  1.
        -12    1    3    3    0    0  0.37938595045E+00  0.80182868384E+01 -0.26386533438E+01  0.84498135477E+01  0.00000000000E+00 0.  1.
</event>
<event>
 7    1  0.4119299E-008  0.4614232E+02  0.7816164E-02  0.1320468E+00
        -11   -1    0    0    0    0  0.00000000000E+00  0.00000000000E+00  0.45593999997E+02  0.45594000000E+02  0.51100000000E-03 0. -1.
         11   -1    0    0    0    0 -0.00000000000E+00 -0.00000000000E+00 -0.45593999997E+02  0.45594000000E+02  0.51100000000E-03 0.  1.
    9900012    2    1    2    0    0  0.11399023728E+02  0.70262994340E+01  0.43009380418E+02  0.46142318413E+02  0.10000005947E+02 0.  0.
        -12    1    1    2    0    0 -0.11399023728E+02 -0.70262994340E+01 -0.43009380418E+02  0.45045681587E+02  0.00000000000E+00 0.  1.
         11    1    3    3    0    0  0.52612740723E+01  0.71734742878E+01  0.27296035582E+02  0.28709115224E+02  0.51100000000E-03 0. -1.
        -11    1    3    3    0    0  0.45821467246E+01  0.18643424251E+01  0.11382706883E+02  0.12411198875E+02  0.51100000000E-03 0.  1.
        -12    1    3    3    0    0  0.15556029309E+01 -0.20115172789E+01  0.43306379536E+01  0.50220043137E+01  0.00000000000E+00 0.  1.
</event>
<event>
 7    1  0.4119299E-008  0.4614232E+02  0.7816164E-02  0.1320468E+00
        -11   -1    0    0    0    0  0.00000000000E+00  0.00000000000E+00  0.45593999997E+02  0.45594000000E+02  0.51100000000E-03 0.  1.
         11   -1    0    0    0    0 -0.00000000000E+00 -0.00000000000E+00 -0.45593999997E+02  0.45594000000E+02  0.51100000000E-03 0. -1.
    9900012    2    1    2    0    0 -0.33563211501E+02 -0.21536865480E+02 -0.20947259739E+02  0.46142318392E+02  0.10000005751E+02 0.  0.
        -12    1    1    2    0    0  0.33563211501E+02  0.21536865480E+02  0.20947259739E+02  0.45045681608E+02  0.00000000000E+00 0.  1.
         11    1    3    3    0    0 -0.24874534406E+01 -0.91129636754E+00  0.69646578165E+00  0.27391514261E+01  0.51100000000E-03 0.  1.
        -11    1    3    3    0    0 -0.11399096633E+02 -0.74164826883E+01 -0.10675128941E+02  0.17288782424E+02  0.51100000000E-03 0. -1.
        -12    1    3    3    0    0 -0.19676661428E+02 -0.13209086424E+02 -0.10968596580E+02  0.26114384542E+02  0.00000000000E+00 0.  1.
</event>
<event>
 7    1  0.4119299E-008  0.4614232E+02  0.7816164E-02  0.1320468E+00
        -11   -1    0    0    0    0  0.00000000000E+00  0.00000000000E+00  0.45593999997E+02  0.45594000000E+02  0.51100000000E-03 0. -1.
         11   -1    0    0    0    0 -0.00000000000E+00 -0.00000000000E+00 -0.45593999997E+02  0.45594000000E+02  0.51100000000E-03 0.  1.
    9900012    2    1    2    0    0  0.29863835366E+02  0.12427930654E+02  0.31349821799E+02  0.46142318188E+02  0.10000003890E+02 0.  0.
        -12    1    1    2    0    0 -0.29863835366E+02 -0.12427930654E+02 -0.31349821799E+02  0.45045681812E+02  0.00000000000E+00 0.  1.
         11    1    3    3    0    0  0.12806141104E+02  0.73693076632E+01  0.16309261498E+02  0.22006725251E+02  0.51100000000E-03 0. -1.
        -11    1    3    3    0    0  0.13866727154E+02  0.20116942486E+01  0.13514003790E+02  0.19466929250E+02  0.51100000000E-03 0.  1.
        -12    1    3    3    0    0  0.31909671074E+01  0.30469287419E+01  0.15265565121E+01  0.46686636871E+01  0.00000000000E+00 0.  1.
</event>
<event>
 7    1  0.4119299E-008  0.4614231E+02  0.7816164E-02  0.1320468E+00
        -11   -1    0    0    0    0  0.00000000000E+00  0.00000000000E+00  0.45593999997E+02  0.45594000000E+02  0.51100000000E-03 0. -1.
         11   -1    0    0    0    0 -0.00000000000E+00 -0.00000000000E+00 -0.45593999997E+02  0.45594000000E+02  0.51100000000E-03 0.  1.
    9900012    2    1    2    0    0  0.14116702369E+02  0.15471344276E+02  0.39880707509E+02  0.46142305301E+02  0.99998863825E+01 0.  0.
        -12    1    1    2    0    0 -0.14116702369E+02 -0.15471344276E+02 -0.39880707509E+02  0.45045694699E+02  0.00000000000E+00 0.  1.
         11    1    3    3    0    0  0.66129127430E+00  0.12184225798E+01  0.49863895452E+01  0.51755135678E+01  0.51100000000E-03 0. -1.
        -11    1    3    3    0    0  0.14239416553E+02  0.10676235258E+02  0.28630056005E+02  0.33710874953E+02  0.51100000000E-03 0.  1.
         12    1    3    3    0    0 -0.78400545747E+00  0.35766864381E+01  0.62642619588E+01  0.72559167803E+01  0.00000000000E+00 0. -1.
</event>
<event>
 7    1  0.4119299E-008  0.4614232E+02  0.7816164E-02  0.1320468E+00
        -11   -1    0    0    0    0  0.00000000000E+00  0.00000000000E+00  0.45593999997E+02  0.45594000000E+02  0.51100000000E-03 0.  1.
         11   -1    0    0    0    0 -0.00000000000E+00 -0.00000000000E+00 -0.45593999997E+02  0.45594000000E+02  0.51100000000E-03 0. -1.
    9900012    2    1    2    0    0  0.99448826077E+01 -0.42696206412E+02 -0.10356007309E+02  0.46142316307E+02  0.99999867368E+01 0.  0.
        -12    1    1    2    0    0 -0.99448826077E+01  0.42696206412E+02  0.10356007309E+02  0.45045683693E+02  0.00000000000E+00 0.  1.
         11    1    3    3    0    0  0.14314605239E+01 -0.69430904293E+00 -0.10157393923E+01  0.18875569006E+01  0.51100000000E-03 0.  1.
        -11    1    3    3    0    0  0.30590715763E+01 -0.53679598186E+01 -0.66114816317E+00  0.62136968608E+01  0.51100000000E-03 0. -1.
         12    1    3    3    0    0  0.54543505075E+01 -0.36633937550E+02 -0.86791197532E+01  0.38041062545E+02  0.00000000000E+00 0. -1.
</event>
<event>
 7    1  0.4119299E-008  0.4614232E+02  0.7816164E-02  0.1320468E+00
        -11   -1    0    0    0    0  0.00000000000E+00  0.00000000000E+00  0.45593999997E+02  0.45594000000E+02  0.51100000000E-03 0.  1.
         11   -1    0    0    0    0 -0.00000000000E+00 -0.00000000000E+00 -0.45593999997E+02  0.45594000000E+02  0.51100000000E-03 0. -1.
    9900012    2    1    2    0    0 -0.89768435379E+01 -0.97183817789E+01 -0.43059055586E+02  0.46142323934E+02  0.10000056287E+02 0.  0.
        -12    1    1    2    0    0  0.89768435379E+01  0.97183817789E+01  0.43059055586E+02  0.45045676066E+02  0.00000000000E+00 0.  1.
         11    1    3    3    0    0 -0.55681271753E+01 -0.14969850305E+01 -0.25653939733E+02  0.26293908582E+02  0.51100000000E-03 0. -1.
        -11    1    3    3    0    0 -0.63215853039E+00 -0.20261626232E+01 -0.16354969300E+01  0.26795167199E+01  0.51100000000E-03 0.  1.
        -12    1    3    3    0    0 -0.27765578322E+01 -0.61952341252E+01 -0.15769618923E+02  0.17168898632E+02  0.00000000000E+00 0.  1.
</event>
<event>
 7    1  0.4119299E-008  0.4614232E+02  0.7816164E-02  0.1320468E+00
        -11   -1    0    0    0    0  0.00000000000E+00  0.00000000000E+00  0.45593999997E+02  0.45594000000E+02  0.51100000000E-03 0. -1.
         11   -1    0    0    0    0 -0.00000000000E+00 -0.00000000000E+00 -0.45593999997E+02  0.45594000000E+02  0.51100000000E-03 0.  1.
    9900012    2    1    2    0    0  0.21903529451E+02 -0.17315326605E+01  0.39323664325E+02  0.46142318923E+02  0.10000010593E+02 0.  0.
        -12    1    1    2    0    0 -0.21903529451E+02  0.17315326605E+01 -0.39323664325E+02  0.45045681077E+02  0.00000000000E+00 0.  1.
         11    1    3    3    0    0  0.72782993518E+01  0.11058095237E+01  0.92937563887E+01  0.11856237356E+02  0.51100000000E-03 0. -1.
        -11    1    3    3    0    0  0.14263865122E+02 -0.93857868249E+00  0.23796695369E+02  0.27760070045E+02  0.51100000000E-03 0.  1.
        -12    1    3    3    0    0  0.36136497760E+00 -0.18987635017E+01  0.62332125670E+01  0.65260115222E+01  0.00000000000E+00 0.  1.
</event>
<event>
 7    1  0.4119299E-008  0.4614232E+02  0.7816164E-02  0.1320468E+00
        -11   -1    0    0    0    0  0.00000000000E+00  0.00000000000E+00  0.45593999997E+02  0.45594000000E+02  0.51100000000E-03 0.  1.
         11   -1    0    0    0    0 -0.00000000000E+00 -0.00000000000E+00 -0.45593999997E+02  0.45594000000E+02  0.51100000000E-03 0. -1.
    9900012    2    1    2    0    0 -0.44676400832E+02  0.79674430086E+00  0.57006805477E+01  0.46142319280E+02  0.10000013851E+02 0.  0.
        -12    1    1    2    0    0  0.44676400832E+02 -0.79674430086E+00 -0.57006805477E+01  0.45045680720E+02  0.00000000000E+00 0.  1.
         11    1    3    3    0    0 -0.31191710664E+02  0.37842271997E+00  0.40425250726E+01  0.31454856972E+02  0.51100000000E-03 0. -1.
        -11    1    3    3    0    0 -0.12020378514E+02 -0.15114995550E+01  0.89692846715E+00  0.12148193753E+02  0.51100000000E-03 0.  1.
        -12    1    3    3    0    0 -0.14643116545E+01  0.19298211359E+01  0.76122700796E+00  0.25392685552E+01  0.00000000000E+00 0.  1.
</event>
<event>
 7    1  0.4119299E-008  0.4614232E+02  0.7816164E-02  0.1320468E+00
        -11   -1    0    0    0    0  0.00000000000E+00  0.00000000000E+00  0.45593999997E+02  0.45594000000E+02  0.51100000000E-03 0.  1.
         11   -1    0    0    0    0 -0.00000000000E+00 -0.00000000000E+00 -0.45593999997E+02  0.45594000000E+02  0.51100000000E-03 0. -1.
    9900012    2    1    2    0    0 -0.24867289334E+02 -0.34472005054E+02 -0.14913493834E+02  0.46142317525E+02  0.99999978497E+01 0.  0.
        -12    1    1    2    0    0  0.24867289334E+02  0.34472005054E+02  0.14913493834E+02  0.45045682475E+02  0.00000000000E+00 0.  1.
         11    1    3    3    0    0 -0.70362032745E+01 -0.77883628656E+01 -0.28360057780E+01  0.10872427589E+02  0.51100000000E-03 0. -1.
        -11    1    3    3    0    0 -0.16694595300E+02 -0.19056814270E+02 -0.10349745189E+02  0.27367661721E+02  0.51100000000E-03 0.  1.
        -12    1    3    3    0    0 -0.11364907598E+01 -0.76268279189E+01 -0.17277428668E+01  0.79022282152E+01  0.00000000000E+00 0.  1.
</event>
<event>
 7    1  0.4119299E-008  0.4614232E+02  0.7816164E-02  0.1320468E+00
        -11   -1    0    0    0    0  0.00000000000E+00  0.00000000000E+00  0.45593999997E+02  0.45594000000E+02  0.51100000000E-03 0. -1.
         11   -1    0    0    0    0 -0.00000000000E+00 -0.00000000000E+00 -0.45593999997E+02  0.45594000000E+02  0.51100000000E-03 0.  1.
    9900012    2    1    2    0    0 -0.71729172853E+01  0.43674784613E+02  0.83771095606E+01  0.46142317432E+02  0.99999969999E+01 0.  0.
        -12    1    1    2    0    0  0.71729172853E+01 -0.43674784613E+02 -0.83771095606E+01  0.45045682568E+02  0.00000000000E+00 0.  1.
         11    1    3    3    0    0 -0.85424054961E+01  0.23280255059E+02  0.34990045496E+01  0.25043681845E+02  0.51100000000E-03 0. -1.
        -11    1    3    3    0    0  0.39237466306E+00  0.14945293887E+01 -0.36754057545E-01  0.15456154411E+01  0.51100000000E-03 0.  1.
         12    1    3    3    0    0  0.97711354779E+00  0.18900000166E+02  0.49148590685E+01  0.19553020146E+02  0.00000000000E+00 0. -1.
</event>
<event>
 7    1  0.4119299E-008  0.4614232E+02  0.7816164E-02  0.1320468E+00
        -11   -1    0    0    0    0  0.00000000000E+00  0.00000000000E+00  0.45593999997E+02  0.45594000000E+02  0.51100000000E-03 0. -1.
         11   -1    0    0    0    0 -0.00000000000E+00 -0.00000000000E+00 -0.45593999997E+02  0.45594000000E+02  0.51100000000E-03 0.  1.
    9900012    2    1    2    0    0 -0.51992484816E+01  0.43924250103E+02 -0.85288724473E+01  0.46142316554E+02  0.99999889917E+01 0.  0.
        -12    1    1    2    0    0  0.51992484816E+01 -0.43924250103E+02  0.85288724473E+01  0.45045683446E+02  0.00000000000E+00 0.  1.
         11    1    3    3    0    0 -0.24106444839E+01  0.24652850284E+02 -0.60165120993E+01  0.25490638518E+02  0.51100000000E-03 0. -1.
        -11    1    3    3    0    0  0.10798056087E+01  0.52851141816E+01 -0.29212795423E+01  0.61345159948E+01  0.51100000000E-03 0.  1.
        -12    1    3    3    0    0 -0.38684096064E+01  0.13986285637E+02  0.40891919436E+00  0.14517162041E+02  0.00000000000E+00 0.  1.
</event>
<event>
 7    1  0.4119299E-008  0.4614232E+02  0.7816164E-02  0.1320468E+00
        -11   -1    0    0    0    0  0.00000000000E+00  0.00000000000E+00  0.45593999997E+02  0.45594000000E+02  0.51100000000E-03 0.  1.
         11   -1    0    0    0    0 -0.00000000000E+00 -0.00000000000E+00 -0.45593999997E+02  0.45594000000E+02  0.51100000000E-03 0. -1.
    9900012    2    1    2    0    0  0.15465835396E+02  0.32662504449E+02 -0.26890187951E+02  0.46142317972E+02  0.10000001922E+02 0.  0.
        -12    1    1    2    0    0 -0.15465835396E+02 -0.32662504449E+02  0.26890187951E+02  0.45045682028E+02  0.00000000000E+00 0.  1.
         11    1    3    3    0    0  0.52044013891E+01  0.67410593312E+01 -0.89161679973E+01  0.12329871319E+02  0.51100000000E-03 0. -1.
        -11    1    3    3    0    0  0.86365524696E+01  0.13646373488E+02 -0.11615850033E+02  0.19893253132E+02  0.51100000000E-03 0.  1.
         12    1    3    3    0    0  0.16248815369E+01  0.12275071630E+02 -0.63581699201E+01  0.13919193521E+02  0.00000000000E+00 0. -1.
</event>
<event>
 7    1  0.4119299E-008  0.4614232E+02  0.7816164E-02  0.1320468E+00
        -11   -1    0    0    0    0  0.00000000000E+00  0.00000000000E+00  0.45593999997E+02  0.45594000000E+02  0.51100000000E-03 0.  1.
         11   -1    0    0    0    0 -0.00000000000E+00 -0.00000000000E+00 -0.45593999997E+02  0.45594000000E+02  0.51100000000E-03 0. -1.
    9900012    2    1    2    0    0  0.41918070291E+02 -0.10260107513E+02 -0.12911971441E+02  0.46142318413E+02  0.10000005944E+02 0.  0.
        -12    1    1    2    0    0 -0.41918070291E+02  0.10260107513E+02  0.12911971441E+02  0.45045681587E+02  0.00000000000E+00 0.  1.
         11    1    3    3    0    0  0.29874647941E+02 -0.89176147204E+01 -0.12866923247E+02  0.33727972901E+02  0.51100000000E-03 0. -1.
        -11    1    3    3    0    0  0.28945756036E+00  0.33904626439E+00 -0.30108118625E+00  0.53794812992E+00  0.51100000000E-03 0.  1.
         12    1    3    3    0    0  0.11753964790E+02 -0.16815390571E+01  0.25603299177E+00  0.11876397382E+02  0.00000000000E+00 0. -1.
</event>
<event>
 7    1  0.4119299E-008  0.4614232E+02  0.7816164E-02  0.1320468E+00
        -11   -1    0    0    0    0  0.00000000000E+00  0.00000000000E+00  0.45593999997E+02  0.45594000000E+02  0.51100000000E-03 0. -1.
         11   -1    0    0    0    0 -0.00000000000E+00 -0.00000000000E+00 -0.45593999997E+02  0.45594000000E+02  0.51100000000E-03 0.  1.
    9900012    2    1    2    0    0  0.56234582555E+01  0.67490861883E+01  0.44180766042E+02  0.46142317241E+02  0.99999952570E+01 0.  0.
        -12    1    1    2    0    0 -0.56234582555E+01 -0.67490861883E+01 -0.44180766042E+02  0.45045682759E+02  0.00000000000E+00 0.  1.
         11    1    3    3    0    0  0.21167118433E+01  0.11654824529E+00  0.53790807441E+01  0.57817438921E+01  0.51100000000E-03 0. -1.
        -11    1    3    3    0    0 -0.24078158504E+01  0.10079883854E+01  0.14268725747E+02  0.14505521447E+02  0.51100000000E-03 0.  1.
        -12    1    3    3    0    0  0.59145622626E+01  0.56245495576E+01  0.24532959552E+02  0.25855051902E+02  0.00000000000E+00 0.  1.
</event>
<event>
 7    1  0.4119299E-008  0.4614232E+02  0.7816164E-02  0.1320468E+00
        -11   -1    0    0    0    0  0.00000000000E+00  0.00000000000E+00  0.45593999997E+02  0.45594000000E+02  0.51100000000E-03 0.  1.
         11   -1    0    0    0    0 -0.00000000000E+00 -0.00000000000E+00 -0.45593999997E+02  0.45594000000E+02  0.51100000000E-03 0. -1.
    9900012    2    1    2    0    0  0.14038472973E+02  0.15885428630E+02 -0.39745286747E+02  0.46142318911E+02  0.10000010488E+02 0.  0.
        -12    1    1    2    0    0 -0.14038472973E+02 -0.15885428630E+02  0.39745286747E+02  0.45045681089E+02  0.00000000000E+00 0.  1.
         11    1    3    3    0    0  0.21105110554E+01  0.80409253781E+00 -0.12300953262E+02  0.12506569199E+02  0.51100000000E-03 0. -1.
        -11    1    3    3    0    0  0.10917693481E+01  0.10062041775E+01 -0.36647678314E+01  0.39541030178E+01  0.51100000000E-03 0.  1.
        -12    1    3    3    0    0  0.10836192569E+02  0.14075131915E+02 -0.23779565654E+02  0.29681646695E+02  0.00000000000E+00 0.  1.
</event>
<event>
 7    1  0.4119299E-008  0.4614232E+02  0.7816164E-02  0.1320468E+00
        -11   -1    0    0    0    0  0.00000000000E+00  0.00000000000E+00  0.45593999997E+02  0.45594000000E+02  0.51100000000E-03 0.  1.
         11   -1    0    0    0    0 -0.00000000000E+00 -0.00000000000E+00 -0.45593999997E+02  0.45594000000E+02  0.51100000000E-03 0. -1.
    9900012    2    1    2    0    0 -0.36852718510E+02  0.22602613551E+02 -0.12653555875E+02  0.46142317886E+02  0.10000001135E+02 0.  0.
        -12    1    1    2    0    0  0.36852718510E+02 -0.22602613551E+02  0.12653555875E+02  0.45045682114E+02  0.00000000000E+00 0.  1.
         11    1    3    3    0    0 -0.10586368891E+02  0.45637431269E+01  0.45530529292E-01  0.11528270943E+02  0.51100000000E-03 0. -1.
        -11    1    3    3    0    0 -0.25838986231E+02  0.17009290912E+02 -0.11571098650E+02  0.33028162392E+02  0.51100000000E-03 0.  1.
         12    1    3    3    0    0 -0.42736338750E+00  0.10295795116E+01 -0.11279877541E+01  0.15858845510E+01  0.00000000000E+00 0. -1.
</event>
<event>
 7    1  0.4119299E-008  0.4614232E+02  0.7816164E-02  0.1320468E+00
        -11   -1    0    0    0    0  0.00000000000E+00  0.00000000000E+00  0.45593999997E+02  0.45594000000E+02  0.51100000000E-03 0.  1.
         11   -1    0    0    0    0 -0.00000000000E+00 -0.00000000000E+00 -0.45593999997E+02  0.45594000000E+02  0.51100000000E-03 0. -1.
    9900012    2    1    2    0    0  0.18659770551E+02 -0.74899813257E+01 -0.40309137077E+02  0.46142318863E+02  0.10000010044E+02 0.  0.
        -12    1    1    2    0    0 -0.18659770551E+02  0.74899813257E+01  0.40309137077E+02  0.45045681137E+02  0.00000000000E+00 0.  1.
         11    1    3    3    0    0  0.52124497825E+01 -0.31013522256E+01 -0.14910619856E+02  0.16097037091E+02  0.51100000000E-03 0. -1.
        -11    1    3    3    0    0 -0.70379673677E+00  0.49514778588E+00 -0.50667717355E+00  0.99861063276E+00  0.51100000000E-03 0.  1.
        -12    1    3    3    0    0  0.14151117505E+02 -0.48837768860E+01 -0.24891840048E+02  0.29046671139E+02  0.00000000000E+00 0.  1.
</event>
<event>
 7    1  0.4119299E-008  0.4614232E+02  0.7816164E-02  0.1320468E+00
        -11   -1    0    0    0    0  0.00000000000E+00  0.00000000000E+00  0.45593999997E+02  0.45594000000E+02  0.51100000000E-03 0.  1.
         11   -1    0    0    0    0 -0.00000000000E+00 -0.00000000000E+00 -0.45593999997E+02  0.45594000000E+02  0.51100000000E-03 0. -1.
    9900012    2    1    2    0    0 -0.14180101352E+02  0.30939199116E+01 -0.42643474113E+02  0.46142317641E+02  0.99999989015E+01 0.  0.
        -12    1    1    2    0    0  0.14180101352E+02 -0.30939199116E+01  0.42643474113E+02  0.45045682359E+02  0.00000000000E+00 0.  1.
         11    1    3    3    0    0 -0.23268378248E+01  0.14941904935E+01 -0.11359142402E+02  0.11690889438E+02  0.51100000000E-03 0. -1.
        -11    1    3    3    0    0 -0.11635804921E+02  0.37734242056E+01 -0.27028621980E+02  0.29667778697E+02  0.51100000000E-03 0.  1.
        -12    1    3    3    0    0 -0.21745860623E+00 -0.21736947875E+01 -0.42557097311E+01  0.47836495054E+01  0.00000000000E+00 0.  1.
</event>
<event>
 7    1  0.4119299E-008  0.4614232E+02  0.7816164E-02  0.1320468E+00
        -11   -1    0    0    0    0  0.00000000000E+00  0.00000000000E+00  0.45593999997E+02  0.45594000000E+02  0.51100000000E-03 0.  1.
         11   -1    0    0    0    0 -0.00000000000E+00 -0.00000000000E+00 -0.45593999997E+02  0.45594000000E+02  0.51100000000E-03 0. -1.
    9900012    2    1    2    0    0  0.74246527408E+01 -0.33810163780E+02 -0.28824658479E+02  0.46142316748E+02  0.99999907644E+01 0.  0.
        -12    1    1    2    0    0 -0.74246527408E+01  0.33810163780E+02  0.28824658479E+02  0.45045683252E+02  0.00000000000E+00 0.  1.
         11    1    3    3    0    0  0.20951846975E+01 -0.94381469083E+01 -0.10963356403E+02  0.14617236396E+02  0.51100000000E-03 0. -1.
        -11    1    3    3    0    0  0.16145187746E+01 -0.33717790408E+00 -0.95510990106E+00  0.19059367767E+01  0.51100000000E-03 0.  1.
         12    1    3    3    0    0  0.37149492687E+01 -0.24034838968E+02 -0.16906192175E+02  0.29619143575E+02  0.00000000000E+00 0. -1.
</event>
<event>
 7    1  0.4119299E-008  0.4614232E+02  0.7816164E-02  0.1320468E+00
        -11   -1    0    0    0    0  0.00000000000E+00  0.00000000000E+00  0.45593999997E+02  0.45594000000E+02  0.51100000000E-03 0.  1.
         11   -1    0    0    0    0 -0.00000000000E+00 -0.00000000000E+00 -0.45593999997E+02  0.45594000000E+02  0.51100000000E-03 0. -1.
    9900012    2    1    2    0    0  0.33055646544E+02  0.14456389905E+01 -0.30567103490E+02  0.46142318117E+02  0.10000003246E+02 0.  0.
        -12    1    1    2    0    0 -0.33055646544E+02 -0.14456389905E+01  0.30567103490E+02  0.45045681883E+02  0.00000000000E+00 0.  1.
         11    1    3    3    0    0  0.15675055891E+02  0.29962513515E+01 -0.16154751437E+02  0.22708167993E+02  0.51100000000E-03 0. -1.
        -11    1    3    3    0    0  0.13270971021E+02  0.14855140696E+01 -0.10838799964E+02  0.17198982785E+02  0.51100000000E-03 0.  1.
        -12    1    3    3    0    0  0.41096196322E+01 -0.30361264306E+01 -0.35735520878E+01  0.62351673392E+01  0.00000000000E+00 0.  1.
</event>
<event>
 7    1  0.4119299E-008  0.4614232E+02  0.7816164E-02  0.1320468E+00
        -11   -1    0    0    0    0  0.00000000000E+00  0.00000000000E+00  0.45593999997E+02  0.45594000000E+02  0.51100000000E-03 0.  1.
         11   -1    0    0    0    0 -0.00000000000E+00 -0.00000000000E+00 -0.45593999997E+02  0.45594000000E+02  0.51100000000E-03 0. -1.
    9900012    2    1    2    0    0  0.44528172238E+02  0.56501705568E+01 -0.37987998516E+01  0.46142318404E+02  0.10000005861E+02 0.  0.
        -12    1    1    2    0    0 -0.44528172238E+02 -0.56501705568E+01  0.37987998516E+01  0.45045681596E+02  0.00000000000E+00 0.  1.
         11    1    3    3    0    0  0.12091011468E+02  0.37428893749E+01 -0.70951647825E+00  0.12676955198E+02  0.51100000000E-03 0.  1.
        -11    1    3    3    0    0  0.22960246542E+02  0.37371124809E+01  0.21527247323E+00  0.23263389122E+02  0.51100000000E-03 0. -1.
         12    1    3    3    0    0  0.94769142278E+01 -0.18298312990E+01 -0.33045558466E+01  0.10201974084E+02  0.00000000000E+00 0. -1.
</event>
<event>
 7    1  0.4119299E-008  0.4614232E+02  0.7816164E-02  0.1320468E+00
        -11   -1    0    0    0    0  0.00000000000E+00  0.00000000000E+00  0.45593999997E+02  0.45594000000E+02  0.51100000000E-03 0.  1.
         11   -1    0    0    0    0 -0.00000000000E+00 -0.00000000000E+00 -0.45593999997E+02  0.45594000000E+02  0.51100000000E-03 0. -1.
    9900012    2    1    2    0    0  0.21775739226E+02 -0.21927409738E+02 -0.32773760358E+02  0.46142317802E+02  0.10000000375E+02 0.  0.
        -12    1    1    2    0    0 -0.21775739226E+02  0.21927409738E+02  0.32773760358E+02  0.45045682198E+02  0.00000000000E+00 0.  1.
         11    1    3    3    0    0  0.17297924190E+02 -0.13122355191E+02 -0.17740725045E+02  0.28038325778E+02  0.51100000000E-03 0. -1.
        -11    1    3    3    0    0 -0.30309088177E-01 -0.14592241603E+01 -0.24615383275E+01  0.28617171400E+01  0.51100000000E-03 0.  1.
        -12    1    3    3    0    0  0.45081241245E+01 -0.73458303862E+01 -0.12571496986E+02  0.15242274884E+02  0.00000000000E+00 0.  1.
</event>
<event>
 7    1  0.4119299E-008  0.4614232E+02  0.7816164E-02  0.1320468E+00
        -11   -1    0    0    0    0  0.00000000000E+00  0.00000000000E+00  0.45593999997E+02  0.45594000000E+02  0.51100000000E-03 0.  1.
         11   -1    0    0    0    0 -0.00000000000E+00 -0.00000000000E+00 -0.45593999997E+02  0.45594000000E+02  0.51100000000E-03 0. -1.
    9900012    2    1    2    0    0 -0.26617719517E+02  0.18982164396E+02 -0.30988513067E+02  0.46142317637E+02  0.99999988684E+01 0.  0.
        -12    1    1    2    0    0  0.26617719517E+02 -0.18982164396E+02  0.30988513067E+02  0.45045682363E+02  0.00000000000E+00 0.  1.
         11    1    3    3    0    0 -0.10869746008E+02  0.88332000639E+01 -0.14700454153E+02  0.20304683061E+02  0.51100000000E-03 0. -1.
        -11    1    3    3    0    0 -0.59549933309E+01  0.12217176589E+01 -0.85551715749E+01  0.10495022656E+02  0.51100000000E-03 0.  1.
        -12    1    3    3    0    0 -0.97929801774E+01  0.89272466736E+01 -0.77328873396E+01  0.15342611920E+02  0.00000000000E+00 0.  1.
</event>
<event>
 7    1  0.4119299E-008  0.4614233E+02  0.7816164E-02  0.1320468E+00
        -11   -1    0    0    0    0  0.00000000000E+00  0.00000000000E+00  0.45593999997E+02  0.45594000000E+02  0.51100000000E-03 0.  1.
         11   -1    0    0    0    0 -0.00000000000E+00 -0.00000000000E+00 -0.45593999997E+02  0.45594000000E+02  0.51100000000E-03 0. -1.
    9900012    2    1    2    0    0  0.25008199266E+02 -0.34356375636E+02 -0.14944618770E+02  0.46142331978E+02  0.10000129639E+02 0.  0.
        -12    1    1    2    0    0 -0.25008199266E+02  0.34356375636E+02  0.14944618770E+02  0.45045668022E+02  0.00000000000E+00 0.  1.
         11    1    3    3    0    0  0.11276733580E+02 -0.15916130790E+02 -0.66724138273E+01  0.20615747527E+02  0.51100000000E-03 0. -1.
        -11    1    3    3    0    0  0.83748191600E+01 -0.52272377037E+01 -0.28843934845E+01  0.10285005397E+02  0.51100000000E-03 0.  1.
         12    1    3    3    0    0  0.53566465256E+01 -0.13213007143E+02 -0.53878114580E+01  0.15241579054E+02  0.00000000000E+00 0. -1.
</event>
<event>
 7    1  0.4119299E-008  0.4614232E+02  0.7816164E-02  0.1320468E+00
        -11   -1    0    0    0    0  0.00000000000E+00  0.00000000000E+00  0.45593999997E+02  0.45594000000E+02  0.51100000000E-03 0. -1.
         11   -1    0    0    0    0 -0.00000000000E+00 -0.00000000000E+00 -0.45593999997E+02  0.45594000000E+02  0.51100000000E-03 0.  1.
    9900012    2    1    2    0    0 -0.19538075594E+02  0.33438686572E+02  0.23005027507E+02  0.46142318207E+02  0.10000004069E+02 0.  0.
        -12    1    1    2    0    0  0.19538075594E+02 -0.33438686572E+02 -0.23005027507E+02  0.45045681793E+02  0.00000000000E+00 0.  1.
         11    1    3    3    0    0 -0.29855282856E+01  0.63854330839E+01  0.57210589538E+01  0.90784167468E+01  0.51100000000E-03 0. -1.
        -11    1    3    3    0    0 -0.17135621620E+02  0.23916624615E+02  0.14371496170E+02  0.32744073719E+02  0.51100000000E-03 0.  1.
         12    1    3    3    0    0  0.58307431123E+00  0.31366288730E+01  0.29124723826E+01  0.43198277418E+01  0.00000000000E+00 0. -1.
</event>
<event>
 7    1  0.4119299E-008  0.4614232E+02  0.7816164E-02  0.1320468E+00
        -11   -1    0    0    0    0  0.00000000000E+00  0.00000000000E+00  0.45593999997E+02  0.45594000000E+02  0.51100000000E-03 0.  1.
         11   -1    0    0    0    0 -0.00000000000E+00 -0.00000000000E+00 -0.45593999997E+02  0.45594000000E+02  0.51100000000E-03 0. -1.
    9900012    2    1    2    0    0  0.23736713756E+02  0.39941068277E+00 -0.38282143892E+02  0.46142315969E+02  0.99999836625E+01 0.  0.
        -12    1    1    2    0    0 -0.23736713756E+02 -0.39941068277E+00  0.38282143892E+02  0.45045684031E+02  0.00000000000E+00 0.  1.
         11    1    3    3    0    0  0.68087676806E+01 -0.22225171718E+01 -0.10236425727E+02  0.12493330694E+02  0.51100000000E-03 0. -1.
        -11    1    3    3    0    0 -0.72548253007E+00 -0.52743444306E-01 -0.89248979043E+00  0.11513666052E+01  0.51100000000E-03 0.  1.
         12    1    3    3    0    0  0.17653428605E+02  0.26746712989E+01 -0.27153228375E+02  0.32497618671E+02  0.00000000000E+00 0. -1.
</event>
<event>
 7    1  0.4119299E-008  0.4614232E+02  0.7816164E-02  0.1320468E+00
        -11   -1    0    0    0    0  0.00000000000E+00  0.00000000000E+00  0.45593999997E+02  0.45594000000E+02  0.51100000000E-03 0.  1.
         11   -1    0    0    0    0 -0.00000000000E+00 -0.00000000000E+00 -0.45593999997E+02  0.45594000000E+02  0.51100000000E-03 0. -1.
    9900012    2    1    2    0    0  0.21942808520E+02  0.29432318492E+01 -0.39229631953E+02  0.46142317825E+02  0.10000000584E+02 0.  0.
        -12    1    1    2    0    0 -0.21942808520E+02 -0.29432318492E+01  0.39229631953E+02  0.45045682175E+02  0.00000000000E+00 0.  1.
         11    1    3    3    0    0  0.12482711255E+01  0.32195241626E+00 -0.62644569637E+01  0.63957216538E+01  0.51100000000E-03 0. -1.
        -11    1    3    3    0    0  0.14046296542E+02  0.18509108727E+01 -0.15280688760E+02  0.20838036540E+02  0.51100000000E-03 0.  1.
         12    1    3    3    0    0  0.66482408518E+01  0.77036856017E+00 -0.17684486229E+02  0.18908559631E+02  0.00000000000E+00 0. -1.
</event>
<event>
 7    1  0.4119299E-008  0.4614232E+02  0.7816164E-02  0.1320468E+00
        -11   -1    0    0    0    0  0.00000000000E+00  0.00000000000E+00  0.45593999997E+02  0.45594000000E+02  0.51100000000E-03 0.  1.
         11   -1    0    0    0    0 -0.00000000000E+00 -0.00000000000E+00 -0.45593999997E+02  0.45594000000E+02  0.51100000000E-03 0. -1.
    9900012    2    1    2    0    0  0.39912979536E+02 -0.19303210435E+02 -0.79657778363E+01  0.46142317797E+02  0.10000000329E+02 0.  0.
        -12    1    1    2    0    0 -0.39912979536E+02  0.19303210435E+02  0.79657778363E+01  0.45045682203E+02  0.00000000000E+00 0.  1.
         11    1    3    3    0    0  0.15805050190E+02 -0.12597094619E+02 -0.38320484522E+01  0.20571120532E+02  0.51100000000E-03 0. -1.
        -11    1    3    3    0    0  0.14237893872E+02 -0.36902210895E+01 -0.81780906357E+00  0.14731061249E+02  0.51100000000E-03 0.  1.
        -12    1    3    3    0    0  0.98700354750E+01 -0.30158947265E+01 -0.33159203205E+01  0.10840136016E+02  0.00000000000E+00 0.  1.
</event>
<event>
 7    1  0.4119299E-008  0.4614232E+02  0.7816164E-02  0.1320468E+00
        -11   -1    0    0    0    0  0.00000000000E+00  0.00000000000E+00  0.45593999997E+02  0.45594000000E+02  0.51100000000E-03 0.  1.
         11   -1    0    0    0    0 -0.00000000000E+00 -0.00000000000E+00 -0.45593999997E+02  0.45594000000E+02  0.51100000000E-03 0. -1.
    9900012    2    1    2    0    0  0.43170017072E+02 -0.30999942115E+01 -0.12484119560E+02  0.46142316752E+02  0.99999908003E+01 0.  0.
        -12    1    1    2    0    0 -0.43170017072E+02  0.30999942115E+01  0.12484119560E+02  0.45045683248E+02  0.00000000000E+00 0.  1.
         11    1    3    3    0    0  0.28832985782E+02 -0.81648404319E+00 -0.59819916673E+01  0.29458308503E+02  0.51100000000E-03 0. -1.
        -11    1    3    3    0    0  0.74655766110E+01 -0.32766955025E+01 -0.19534037300E+01  0.83837553605E+01  0.51100000000E-03 0.  1.
         12    1    3    3    0    0  0.68714546785E+01  0.99318533424E+00 -0.45487241625E+01  0.83002528885E+01  0.00000000000E+00 0. -1.
</event>
<event>
 7    1  0.4119299E-008  0.4614231E+02  0.7816164E-02  0.1320468E+00
        -11   -1    0    0    0    0  0.00000000000E+00  0.00000000000E+00  0.45593999997E+02  0.45594000000E+02  0.51100000000E-03 0.  1.
         11   -1    0    0    0    0 -0.00000000000E+00 -0.00000000000E+00 -0.45593999997E+02  0.45594000000E+02  0.51100000000E-03 0. -1.
    9900012    2    1    2    0    0  0.14136508999E+02  0.25357999126E+02 -0.34441907283E+02  0.46142312263E+02  0.99999498656E+01 0.  0.
        -12    1    1    2    0    0 -0.14136508999E+02 -0.25357999126E+02  0.34441907283E+02  0.45045687737E+02  0.00000000000E+00 0.  1.
         11    1    3    3    0    0  0.65105159766E+01  0.12424373350E+02 -0.13027704276E+02  0.19143483235E+02  0.51100000000E-03 0. -1.
        -11    1    3    3    0    0 -0.59911991836E+00  0.39715107156E+01 -0.75710952875E+01  0.85704915935E+01  0.51100000000E-03 0.  1.
         12    1    3    3    0    0  0.82251129407E+01  0.89621150609E+01 -0.13843107720E+02  0.18428337435E+02  0.00000000000E+00 0. -1.
</event>
<event>
 7    1  0.4119299E-008  0.4614232E+02  0.7816164E-02  0.1320468E+00
        -11   -1    0    0    0    0  0.00000000000E+00  0.00000000000E+00  0.45593999997E+02  0.45594000000E+02  0.51100000000E-03 0.  1.
         11   -1    0    0    0    0 -0.00000000000E+00 -0.00000000000E+00 -0.45593999997E+02  0.45594000000E+02  0.51100000000E-03 0. -1.
    9900012    2    1    2    0    0 -0.41256635392E+02 -0.14906516039E+02 -0.10237151212E+02  0.46142318195E+02  0.10000003959E+02 0.  0.
        -12    1    1    2    0    0  0.41256635392E+02  0.14906516039E+02  0.10237151212E+02  0.45045681805E+02  0.00000000000E+00 0.  1.
         11    1    3    3    0    0 -0.12133569095E+02 -0.84998846299E+01 -0.27301943059E+01  0.15064046565E+02  0.51100000000E-03 0. -1.
        -11    1    3    3    0    0 -0.73400539651E+01 -0.32076798727E+01 -0.73653695706E+00  0.80441338456E+01  0.51100000000E-03 0.  1.
        -12    1    3    3    0    0 -0.21783012332E+02 -0.31989515366E+01 -0.67704199491E+01  0.23034137785E+02  0.00000000000E+00 0.  1.
</event>
<event>
 7    1  0.4119299E-008  0.4614231E+02  0.7816164E-02  0.1320468E+00
        -11   -1    0    0    0    0  0.00000000000E+00  0.00000000000E+00  0.45593999997E+02  0.45594000000E+02  0.51100000000E-03 0.  1.
         11   -1    0    0    0    0 -0.00000000000E+00 -0.00000000000E+00 -0.45593999997E+02  0.45594000000E+02  0.51100000000E-03 0. -1.
    9900012    2    1    2    0    0  0.14154126973E+02 -0.22329967975E+02 -0.36471188612E+02  0.46142307876E+02  0.99999098593E+01 0.  0.
        -12    1    1    2    0    0 -0.14154126973E+02  0.22329967975E+02  0.36471188612E+02  0.45045692124E+02  0.00000000000E+00 0.  1.
         11    1    3    3    0    0  0.25038870674E+01 -0.14928595187E+01 -0.92189513658E+01  0.96688750398E+01  0.51100000000E-03 0. -1.
        -11    1    3    3    0    0  0.13318092198E+01 -0.34596731515E+01 -0.22974808396E+01  0.43613613222E+01  0.51100000000E-03 0.  1.
         12    1    3    3    0    0  0.10318430686E+02 -0.17377435305E+02 -0.24954756407E+02  0.32112071514E+02  0.00000000000E+00 0. -1.
</event>
<event>
 7    1  0.4119299E-008  0.4614232E+02  0.7816164E-02  0.1320468E+00
        -11   -1    0    0    0    0  0.00000000000E+00  0.00000000000E+00  0.45593999997E+02  0.45594000000E+02  0.51100000000E-03 0.  1.
         11   -1    0    0    0    0 -0.00000000000E+00 -0.00000000000E+00 -0.45593999997E+02  0.45594000000E+02  0.51100000000E-03 0. -1.
    9900012    2    1    2    0    0 -0.28716350789E+02 -0.17597944292E+02 -0.29913157915E+02  0.46142318049E+02  0.10000002629E+02 0.  0.
        -12    1    1    2    0    0  0.28716350789E+02  0.17597944292E+02  0.29913157915E+02  0.45045681951E+02  0.00000000000E+00 0.  1.
         11    1    3    3    0    0 -0.15407020248E+01  0.17097746987E+00 -0.16551190333E+01  0.22676894188E+01  0.51100000000E-03 0. -1.
        -11    1    3    3    0    0 -0.98425465892E+01 -0.18434594451E+01 -0.89458097519E+01  0.13427642327E+02  0.51100000000E-03 0.  1.
        -12    1    3    3    0    0 -0.17333102175E+02 -0.15925462316E+02 -0.19312229130E+02  0.30446986304E+02  0.00000000000E+00 0.  1.
</event>
<event>
 7    1  0.4119299E-008  0.4614232E+02  0.7816164E-02  0.1320468E+00
        -11   -1    0    0    0    0  0.00000000000E+00  0.00000000000E+00  0.45593999997E+02  0.45594000000E+02  0.51100000000E-03 0. -1.
         11   -1    0    0    0    0 -0.00000000000E+00 -0.00000000000E+00 -0.45593999997E+02  0.45594000000E+02  0.51100000000E-03 0.  1.
    9900012    2    1    2    0    0 -0.19708061308E+02 -0.26696245154E+02  0.30463361514E+02  0.46142316738E+02  0.99999906695E+01 0.  0.
        -12    1    1    2    0    0  0.19708061308E+02  0.26696245154E+02 -0.30463361514E+02  0.45045683262E+02  0.00000000000E+00 0.  1.
         11    1    3    3    0    0 -0.15544451072E+01 -0.35521133123E+01  0.72339231231E+01  0.82075241448E+01  0.51100000000E-03 0.  1.
        -11    1    3    3    0    0 -0.60018488064E+01 -0.10693979644E+02  0.68830231671E+01  0.14062695257E+02  0.51100000000E-03 0. -1.
         12    1    3    3    0    0 -0.12151767394E+02 -0.12450152198E+02  0.16346415223E+02  0.23872097336E+02  0.00000000000E+00 0. -1.
</event>
<event>
 7    1  0.4119299E-008  0.4614232E+02  0.7816164E-02  0.1320468E+00
        -11   -1    0    0    0    0  0.00000000000E+00  0.00000000000E+00  0.45593999997E+02  0.45594000000E+02  0.51100000000E-03 0. -1.
         11   -1    0    0    0    0 -0.00000000000E+00 -0.00000000000E+00 -0.45593999997E+02  0.45594000000E+02  0.51100000000E-03 0.  1.
    9900012    2    1    2    0    0 -0.28367554669E+02  0.11974769669E+02  0.32878566960E+02  0.46142318389E+02  0.10000005722E+02 0.  0.
        -12    1    1    2    0    0  0.28367554669E+02 -0.11974769669E+02 -0.32878566960E+02  0.45045681611E+02  0.00000000000E+00 0.  1.
         11    1    3    3    0    0 -0.17932203285E+01  0.54154819406E+00  0.43115826721E+01  0.47009210791E+01  0.51100000000E-03 0. -1.
        -11    1    3    3    0    0 -0.88008132728E+01  0.10013944119E+01  0.51448761363E+01  0.10243381070E+02  0.51100000000E-03 0.  1.
         12    1    3    3    0    0 -0.17773521068E+02  0.10431827063E+02  0.23422108151E+02  0.31198016239E+02  0.00000000000E+00 0. -1.
</event>
<event>
 7    1  0.4119299E-008  0.4614232E+02  0.7816164E-02  0.1320468E+00
        -11   -1    0    0    0    0  0.00000000000E+00  0.00000000000E+00  0.45593999997E+02  0.45594000000E+02  0.51100000000E-03 0.  1.
         11   -1    0    0    0    0 -0.00000000000E+00 -0.00000000000E+00 -0.45593999997E+02  0.45594000000E+02  0.51100000000E-03 0. -1.
    9900012    2    1    2    0    0 -0.34211921483E+02 -0.10791664655E+02 -0.27243308001E+02  0.46142318426E+02  0.10000006067E+02 0.  0.
        -12    1    1    2    0    0  0.34211921483E+02  0.10791664655E+02  0.27243308001E+02  0.45045681574E+02  0.00000000000E+00 0.  1.
         11    1    3    3    0    0 -0.11025312917E+02 -0.36742849641E+01 -0.58764632327E+01  0.13022700000E+02  0.51100000000E-03 0.  1.
        -11    1    3    3    0    0 -0.16645798715E+02 -0.16109895905E+01 -0.13343095999E+02  0.21394300957E+02  0.51100000000E-03 0. -1.
         12    1    3    3    0    0 -0.65408098510E+01 -0.55063901006E+01 -0.80237487696E+01  0.11725317470E+02  0.00000000000E+00 0. -1.
</event>
<event>
 7    1  0.4119299E-008  0.4614232E+02  0.7816164E-02  0.1320468E+00
        -11   -1    0    0    0    0  0.00000000000E+00  0.00000000000E+00  0.45593999997E+02  0.45594000000E+02  0.51100000000E-03 0.  1.
         11   -1    0    0    0    0 -0.00000000000E+00 -0.00000000000E+00 -0.45593999997E+02  0.45594000000E+02  0.51100000000E-03 0. -1.
    9900012    2    1    2    0    0 -0.12369978145E+02 -0.18441398996E+02 -0.39191988949E+02  0.46142317033E+02  0.99999933575E+01 0.  0.
        -12    1    1    2    0    0  0.12369978145E+02  0.18441398996E+02  0.39191988949E+02  0.45045682967E+02  0.00000000000E+00 0.  1.
         11    1    3    3    0    0 -0.37051908029E+01 -0.74305567176E+01 -0.16172773155E+02  0.18179664568E+02  0.51100000000E-03 0. -1.
        -11    1    3    3    0    0 -0.20726399320E+01 -0.84245388075E+01 -0.14351446585E+02  0.16769994327E+02  0.51100000000E-03 0.  1.
         12    1    3    3    0    0 -0.65921474097E+01 -0.25863034709E+01 -0.86677692089E+01  0.11192658137E+02  0.00000000000E+00 0. -1.
</event>
<event>
 7    1  0.4119299E-008  0.4614232E+02  0.7816164E-02  0.1320468E+00
        -11   -1    0    0    0    0  0.00000000000E+00  0.00000000000E+00  0.45593999997E+02  0.45594000000E+02  0.51100000000E-03 0.  1.
         11   -1    0    0    0    0 -0.00000000000E+00 -0.00000000000E+00 -0.45593999997E+02  0.45594000000E+02  0.51100000000E-03 0. -1.
    9900012    2    1    2    0    0 -0.35136609898E+02 -0.75337235162E+00 -0.28177375520E+02  0.46142318562E+02  0.10000007302E+02 0.  0.
        -12    1    1    2    0    0  0.35136609898E+02  0.75337235162E+00  0.28177375520E+02  0.45045681438E+02  0.00000000000E+00 0.  1.
         11    1    3    3    0    0 -0.17652613991E+02  0.28982714822E-01 -0.18420666663E+02  0.25513458826E+02  0.51100000000E-03 0. -1.
        -11    1    3    3    0    0 -0.15712263435E+02 -0.84874314305E+00 -0.10261440397E+02  0.18785439746E+02  0.51100000000E-03 0.  1.
        -12    1    3    3    0    0 -0.17717324727E+01  0.66388076604E-01  0.50473153997E+00  0.18434199898E+01  0.00000000000E+00 0.  1.
</event>
<event>
 7    1  0.4119299E-008  0.4614232E+02  0.7816164E-02  0.1320468E+00
        -11   -1    0    0    0    0  0.00000000000E+00  0.00000000000E+00  0.45593999997E+02  0.45594000000E+02  0.51100000000E-03 0.  1.
         11   -1    0    0    0    0 -0.00000000000E+00 -0.00000000000E+00 -0.45593999997E+02  0.45594000000E+02  0.51100000000E-03 0. -1.
    9900012    2    1    2    0    0 -0.37839118486E+02 -0.18597600024E+02 -0.15856976883E+02  0.46142319515E+02  0.10000015995E+02 0.  0.
        -12    1    1    2    0    0  0.37839118486E+02  0.18597600024E+02  0.15856976883E+02  0.45045680485E+02  0.00000000000E+00 0.  1.
         11    1    3    3    0    0 -0.67378417781E+01 -0.26216507275E+01 -0.38137728080E+00  0.72399594788E+01  0.51100000000E-03 0. -1.
        -11    1    3    3    0    0 -0.96064973819E+01 -0.79459886092E+01 -0.78046477369E+01  0.14708366785E+02  0.51100000000E-03 0.  1.
        -12    1    3    3    0    0 -0.21494779326E+02 -0.80299606877E+01 -0.76709518655E+01  0.24193993251E+02  0.00000000000E+00 0.  1.
</event>
<event>
 7    1  0.4119299E-008  0.4614232E+02  0.7816164E-02  0.1320468E+00
        -11   -1    0    0    0    0  0.00000000000E+00  0.00000000000E+00  0.45593999997E+02  0.45594000000E+02  0.51100000000E-03 0.  1.
         11   -1    0    0    0    0 -0.00000000000E+00 -0.00000000000E+00 -0.45593999997E+02  0.45594000000E+02  0.51100000000E-03 0. -1.
    9900012    2    1    2    0    0 -0.41004159255E+02 -0.32778659375E+01 -0.18358326781E+02  0.46142316038E+02  0.99999842915E+01 0.  0.
        -12    1    1    2    0    0  0.41004159255E+02  0.32778659375E+01  0.18358326781E+02  0.45045683962E+02  0.00000000000E+00 0.  1.
         11    1    3    3    0    0 -0.24715681686E+02  0.88515338671E+00 -0.11475278063E+02  0.27264086719E+02  0.51100000000E-03 0. -1.
        -11    1    3    3    0    0 -0.39402566512E+01 -0.13380428615E+01  0.54016513543E+00  0.41961601269E+01  0.51100000000E-03 0.  1.
        -12    1    3    3    0    0 -0.12348220918E+02 -0.28249764627E+01 -0.74232138539E+01  0.14682069192E+02  0.00000000000E+00 0.  1.
</event>
<event>
 7    1  0.4119299E-008  0.4614232E+02  0.7816164E-02  0.1320468E+00
        -11   -1    0    0    0    0  0.00000000000E+00  0.00000000000E+00  0.45593999997E+02  0.45594000000E+02  0.51100000000E-03 0.  1.
         11   -1    0    0    0    0 -0.00000000000E+00 -0.00000000000E+00 -0.45593999997E+02  0.45594000000E+02  0.51100000000E-03 0. -1.
    9900012    2    1    2    0    0  0.14974211939E+02 -0.32770311689E+02 -0.27036883017E+02  0.46142318801E+02  0.10000009484E+02 0.  0.
        -12    1    1    2    0    0 -0.14974211939E+02  0.32770311689E+02  0.27036883017E+02  0.45045681199E+02  0.00000000000E+00 0.  1.
         11    1    3    3    0    0  0.72527319928E+01 -0.21511860588E+02 -0.12900350545E+02  0.26110942376E+02  0.51100000000E-03 0. -1.
        -11    1    3    3    0    0  0.24116108699E+01 -0.13102985627E+01 -0.16317096728E+01  0.31929964028E+01  0.51100000000E-03 0.  1.
        -12    1    3    3    0    0  0.53098690759E+01 -0.99481525384E+01 -0.12504822800E+02  0.16838380022E+02  0.00000000000E+00 0.  1.
</event>
<event>
 7    1  0.4119299E-008  0.4614232E+02  0.7816164E-02  0.1320468E+00
        -11   -1    0    0    0    0  0.00000000000E+00  0.00000000000E+00  0.45593999997E+02  0.45594000000E+02  0.51100000000E-03 0.  1.
         11   -1    0    0    0    0 -0.00000000000E+00 -0.00000000000E+00 -0.45593999997E+02  0.45594000000E+02  0.51100000000E-03 0. -1.
    9900012    2    1    2    0    0 -0.20621685586E+02  0.39412665882E+02 -0.71064273480E+01  0.46142318098E+02  0.10000003071E+02 0.  0.
        -12    1    1    2    0    0  0.20621685586E+02 -0.39412665882E+02  0.71064273480E+01  0.45045681902E+02  0.00000000000E+00 0.  1.
         11    1    3    3    0    0 -0.66677593194E+01  0.16081420559E+02 -0.47459124184E+01  0.18044245246E+02  0.51100000000E-03 0. -1.
        -11    1    3    3    0    0 -0.42554843725E+01  0.23770844097E+01  0.11692118822E+00  0.48757920752E+01  0.51100000000E-03 0.  1.
        -12    1    3    3    0    0 -0.96984418946E+01  0.20954160913E+02 -0.24774361179E+01  0.23222280777E+02  0.00000000000E+00 0.  1.
</event>
<event>
 7    1  0.4119299E-008  0.4614232E+02  0.7816164E-02  0.1320468E+00
        -11   -1    0    0    0    0  0.00000000000E+00  0.00000000000E+00  0.45593999997E+02  0.45594000000E+02  0.51100000000E-03 0.  1.
         11   -1    0    0    0    0 -0.00000000000E+00 -0.00000000000E+00 -0.45593999997E+02  0.45594000000E+02  0.51100000000E-03 0. -1.
    9900012    2    1    2    0    0  0.10659611448E+02  0.12354130695E+02 -0.41986446911E+02  0.46142316681E+02  0.99999901522E+01 0.  0.
        -12    1    1    2    0    0 -0.10659611448E+02 -0.12354130695E+02  0.41986446911E+02  0.45045683319E+02  0.00000000000E+00 0.  1.
         11    1    3    3    0    0  0.32350729782E+01  0.63163075656E+01 -0.18725815492E+02  0.20025423954E+02  0.51100000000E-03 0.  1.
        -11    1    3    3    0    0  0.50810959737E+01  0.19935829140E+01 -0.19081850428E+02  0.19847138966E+02  0.51100000000E-03 0. -1.
         12    1    3    3    0    0  0.23434424964E+01  0.40442402153E+01 -0.41787809915E+01  0.62697537613E+01  0.00000000000E+00 0. -1.
</event>
<event>
 7    1  0.4119299E-008  0.4614232E+02  0.7816164E-02  0.1320468E+00
        -11   -1    0    0    0    0  0.00000000000E+00  0.00000000000E+00  0.45593999997E+02  0.45594000000E+02  0.51100000000E-03 0. -1.
         11   -1    0    0    0    0 -0.00000000000E+00 -0.00000000000E+00 -0.45593999997E+02  0.45594000000E+02  0.51100000000E-03 0.  1.
    9900012    2    1    2    0    0 -0.63670567039E+01  0.14148652002E+02  0.42289353505E+02  0.46142321135E+02  0.10000030766E+02 0.  0.
        -12    1    1    2    0    0  0.63670567039E+01 -0.14148652002E+02 -0.42289353505E+02  0.45045678865E+02  0.00000000000E+00 0.  1.
         11    1    3    3    0    0  0.65413107228E+00  0.34669978101E+01  0.57856554667E+01  0.67765603897E+01  0.51100000000E-03 0. -1.
        -11    1    3    3    0    0 -0.31203994787E+01  0.65777660874E+00  0.14840068297E+02  0.15178840216E+02  0.51100000000E-03 0.  1.
         12    1    3    3    0    0 -0.39007882975E+01  0.10023877583E+02  0.21663629741E+02  0.24186920530E+02  0.00000000000E+00 0. -1.
</event>
<event>
 7    1  0.4119299E-008  0.4614232E+02  0.7816164E-02  0.1320468E+00
        -11   -1    0    0    0    0  0.00000000000E+00  0.00000000000E+00  0.45593999997E+02  0.45594000000E+02  0.51100000000E-03 0.  1.
         11   -1    0    0    0    0 -0.00000000000E+00 -0.00000000000E+00 -0.45593999997E+02  0.45594000000E+02  0.51100000000E-03 0. -1.
    9900012    2    1    2    0    0  0.26883602465E+01 -0.44965079537E+02  0.16608893393E+00  0.46142320472E+02  0.10000024719E+02 0.  0.
        -12    1    1    2    0    0 -0.26883602465E+01  0.44965079537E+02 -0.16608893393E+00  0.45045679528E+02  0.00000000000E+00 0.  1.
         11    1    3    3    0    0  0.26732350023E+01 -0.18003610697E+02  0.27021834795E+01  0.18400488562E+02  0.51100000000E-03 0. -1.
        -11    1    3    3    0    0  0.10035173775E+00 -0.39340314997E+01  0.17700708252E+01  0.43150695591E+01  0.51100000000E-03 0.  1.
         12    1    3    3    0    0 -0.85226493616E-01 -0.23027437341E+02 -0.43061653708E+01  0.23426762351E+02  0.00000000000E+00 0. -1.
</event>
<event>
 7    1  0.4119299E-008  0.4614232E+02  0.7816164E-02  0.1320468E+00
        -11   -1    0    0    0    0  0.00000000000E+00  0.00000000000E+00  0.45593999997E+02  0.45594000000E+02  0.51100000000E-03 0. -1.
         11   -1    0    0    0    0 -0.00000000000E+00 -0.00000000000E+00 -0.45593999997E+02  0.45594000000E+02  0.51100000000E-03 0.  1.
    9900012    2    1    2    0    0  0.23536069959E+02 -0.20853905922E+02  0.32253396125E+02  0.46142317156E+02  0.99999944789E+01 0.  0.
        -12    1    1    2    0    0 -0.23536069959E+02  0.20853905922E+02 -0.32253396125E+02  0.45045682844E+02  0.00000000000E+00 0.  1.
         11    1    3    3    0    0  0.82849413741E+01 -0.56448697250E+01  0.10584427474E+02  0.14578577194E+02  0.51100000000E-03 0. -1.
        -11    1    3    3    0    0  0.14992739998E+02 -0.15872018576E+02  0.21784776425E+02  0.30842822673E+02  0.51100000000E-03 0.  1.
        -12    1    3    3    0    0  0.25838858692E+00  0.66298237888E+00 -0.11580777356E+00  0.72091728858E+00  0.00000000000E+00 0.  1.
</event>
<event>
 7    1  0.4119299E-008  0.4614232E+02  0.7816164E-02  0.1320468E+00
        -11   -1    0    0    0    0  0.00000000000E+00  0.00000000000E+00  0.45593999997E+02  0.45594000000E+02  0.51100000000E-03 0. -1.
         11   -1    0    0    0    0 -0.00000000000E+00 -0.00000000000E+00 -0.45593999997E+02  0.45594000000E+02  0.51100000000E-03 0.  1.
    9900012    2    1    2    0    0  0.38399667575E+02  0.51228466491E+01  0.22985548238E+02  0.46142318127E+02  0.10000003335E+02 0.  0.
        -12    1    1    2    0    0 -0.38399667575E+02 -0.51228466491E+01 -0.22985548238E+02  0.45045681873E+02  0.00000000000E+00 0.  1.
         11    1    3    3    0    0  0.16704906989E+02  0.55660319347E+01  0.92798347264E+01  0.19903516318E+02  0.51100000000E-03 0. -1.
        -11    1    3    3    0    0  0.27237893760E+01  0.17176665288E+01  0.13225458730E+01  0.34811685848E+01  0.51100000000E-03 0.  1.
         12    1    3    3    0    0  0.18970971210E+02 -0.21608518144E+01  0.12383167639E+02  0.22757633224E+02  0.00000000000E+00 0. -1.
</event>
<event>
 7    1  0.4119299E-008  0.4614232E+02  0.7816164E-02  0.1320468E+00
        -11   -1    0    0    0    0  0.00000000000E+00  0.00000000000E+00  0.45593999997E+02  0.45594000000E+02  0.51100000000E-03 0.  1.
         11   -1    0    0    0    0 -0.00000000000E+00 -0.00000000000E+00 -0.45593999997E+02  0.45594000000E+02  0.51100000000E-03 0. -1.
    9900012    2    1    2    0    0  0.30608904961E+02 -0.27513651840E+02 -0.18308669136E+02  0.46142318009E+02  0.10000002260E+02 0.  0.
        -12    1    1    2    0    0 -0.30608904961E+02  0.27513651840E+02  0.18308669136E+02  0.45045681991E+02  0.00000000000E+00 0.  1.
         11    1    3    3    0    0  0.19160429873E+02 -0.16534004449E+02 -0.12213536266E+02  0.28100993655E+02  0.51100000000E-03 0. -1.
        -11    1    3    3    0    0  0.58859239899E+01 -0.94106348496E+01 -0.49305841997E+01  0.12145567517E+02  0.51100000000E-03 0.  1.
         12    1    3    3    0    0  0.55625510984E+01 -0.15690125411E+01 -0.11645486711E+01  0.58957568372E+01  0.00000000000E+00 0. -1.
</event>
<event>
 7    1  0.4119299E-008  0.4614232E+02  0.7816164E-02  0.1320468E+00
        -11   -1    0    0    0    0  0.00000000000E+00  0.00000000000E+00  0.45593999997E+02  0.45594000000E+02  0.51100000000E-03 0.  1.
         11   -1    0    0    0    0 -0.00000000000E+00 -0.00000000000E+00 -0.45593999997E+02  0.45594000000E+02  0.51100000000E-03 0. -1.
    9900012    2    1    2    0    0  0.15552708946E+02 -0.17054526826E+02 -0.38682939807E+02  0.46142317932E+02  0.10000001563E+02 0.  0.
        -12    1    1    2    0    0 -0.15552708946E+02  0.17054526826E+02  0.38682939807E+02  0.45045682068E+02  0.00000000000E+00 0.  1.
         11    1    3    3    0    0  0.12763403517E+02 -0.15980699411E+02 -0.33099351553E+02  0.38908280565E+02  0.51100000000E-03 0. -1.
        -11    1    3    3    0    0 -0.35664295845E+00 -0.13863455223E+01 -0.19216324577E+01  0.23962094380E+01  0.51100000000E-03 0.  1.
         12    1    3    3    0    0  0.31459483875E+01  0.31251810760E+00 -0.36619557961E+01  0.48378279297E+01  0.00000000000E+00 0. -1.
</event>
<event>
 7    1  0.4119299E-008  0.4614232E+02  0.7816164E-02  0.1320468E+00
        -11   -1    0    0    0    0  0.00000000000E+00  0.00000000000E+00  0.45593999997E+02  0.45594000000E+02  0.51100000000E-03 0. -1.
         11   -1    0    0    0    0 -0.00000000000E+00 -0.00000000000E+00 -0.45593999997E+02  0.45594000000E+02  0.51100000000E-03 0.  1.
    9900012    2    1    2    0    0 -0.10467624069E+02  0.14324569953E+01  0.43789157073E+02  0.46142319143E+02  0.10000012599E+02 0.  0.
        -12    1    1    2    0    0  0.10467624069E+02 -0.14324569953E+01 -0.43789157073E+02  0.45045680857E+02  0.00000000000E+00 0.  1.
         11    1    3    3    0    0 -0.96620390167E+00  0.76357860767E+00  0.16465787762E+02  0.16511776681E+02  0.51100000000E-03 0.  1.
        -11    1    3    3    0    0 -0.87588321568E+01  0.14226831623E+01  0.16320109712E+02  0.18576521456E+02  0.51100000000E-03 0. -1.
         12    1    3    3    0    0 -0.74258801048E+00 -0.75380477465E+00  0.11003259599E+02  0.11054021006E+02  0.00000000000E+00 0. -1.
</event>
<event>
 7    1  0.4119299E-008  0.4614232E+02  0.7816164E-02  0.1320468E+00
        -11   -1    0    0    0    0  0.00000000000E+00  0.00000000000E+00  0.45593999997E+02  0.45594000000E+02  0.51100000000E-03 0.  1.
         11   -1    0    0    0    0 -0.00000000000E+00 -0.00000000000E+00 -0.45593999997E+02  0.45594000000E+02  0.51100000000E-03 0. -1.
    9900012    2    1    2    0    0  0.94937730252E+01 -0.44033254342E+02 -0.23277135870E+00  0.46142318778E+02  0.10000009275E+02 0.  0.
        -12    1    1    2    0    0 -0.94937730252E+01  0.44033254342E+02  0.23277135870E+00  0.45045681222E+02  0.00000000000E+00 0.  1.
         11    1    3    3    0    0  0.54074417732E+01 -0.11128161858E+02 -0.10262745707E+01  0.12414896400E+02  0.51100000000E-03 0. -1.
        -11    1    3    3    0    0  0.43932138185E+01 -0.21844014401E+02  0.28810236523E+01  0.22466899883E+02  0.51100000000E-03 0.  1.
        -12    1    3    3    0    0 -0.30688256657E+00 -0.11061078083E+02 -0.20875204402E+01  0.11260522495E+02  0.00000000000E+00 0.  1.
</event>
<event>
 7    1  0.4119299E-008  0.4614232E+02  0.7816164E-02  0.1320468E+00
        -11   -1    0    0    0    0  0.00000000000E+00  0.00000000000E+00  0.45593999997E+02  0.45594000000E+02  0.51100000000E-03 0.  1.
         11   -1    0    0    0    0 -0.00000000000E+00 -0.00000000000E+00 -0.45593999997E+02  0.45594000000E+02  0.51100000000E-03 0. -1.
    9900012    2    1    2    0    0 -0.31026139559E+02 -0.31516192726E+02 -0.85569732970E+01  0.46142317278E+02  0.99999955942E+01 0.  0.
        -12    1    1    2    0    0  0.31026139559E+02  0.31516192726E+02  0.85569732970E+01  0.45045682722E+02  0.00000000000E+00 0.  1.
         11    1    3    3    0    0 -0.43802090179E+01 -0.21465319310E+01 -0.18997064273E+01  0.52347602755E+01  0.51100000000E-03 0. -1.
        -11    1    3    3    0    0 -0.26458796444E+01 -0.24992316980E+01  0.15509148309E+01  0.39562830089E+01  0.51100000000E-03 0.  1.
         12    1    3    3    0    0 -0.24000050897E+02 -0.26870429097E+02 -0.82081817006E+01  0.36951273994E+02  0.00000000000E+00 0. -1.
</event>
<event>
 7    1  0.4119299E-008  0.4614232E+02  0.7816164E-02  0.1320468E+00
        -11   -1    0    0    0    0  0.00000000000E+00  0.00000000000E+00  0.45593999997E+02  0.45594000000E+02  0.51100000000E-03 0.  1.
         11   -1    0    0    0    0 -0.00000000000E+00 -0.00000000000E+00 -0.45593999997E+02  0.45594000000E+02  0.51100000000E-03 0. -1.
    9900012    2    1    2    0    0  0.38548116993E+02  0.14988133182E+02 -0.17846905105E+02  0.46142317834E+02  0.10000000665E+02 0.  0.
        -12    1    1    2    0    0 -0.38548116993E+02 -0.14988133182E+02  0.17846905105E+02  0.45045682166E+02  0.00000000000E+00 0.  1.
         11    1    3    3    0    0  0.55768946807E+01  0.54447857753E+00 -0.13455779773E+01  0.57627069642E+01  0.51100000000E-03 0. -1.
        -11    1    3    3    0    0  0.41124085318E+01  0.28623679797E+01  0.32884374502E+00  0.50212740269E+01  0.51100000000E-03 0.  1.
        -12    1    3    3    0    0  0.28858813780E+02  0.11581286624E+02 -0.16830170873E+02  0.35358336843E+02  0.00000000000E+00 0.  1.
</event>
<event>
 7    1  0.4119299E-008  0.4614232E+02  0.7816164E-02  0.1320468E+00
        -11   -1    0    0    0    0  0.00000000000E+00  0.00000000000E+00  0.45593999997E+02  0.45594000000E+02  0.51100000000E-03 0.  1.
         11   -1    0    0    0    0 -0.00000000000E+00 -0.00000000000E+00 -0.45593999997E+02  0.45594000000E+02  0.51100000000E-03 0. -1.
    9900012    2    1    2    0    0 -0.21643060421E+02  0.20681060802E+02 -0.33659842381E+02  0.46142319525E+02  0.10000016086E+02 0.  0.
        -12    1    1    2    0    0  0.21643060421E+02 -0.20681060802E+02  0.33659842381E+02  0.45045680475E+02  0.00000000000E+00 0.  1.
         11    1    3    3    0    0  0.53689617472E+00 -0.87188520028E-01 -0.29685826084E+00  0.61966477115E+00  0.51100000000E-03 0.  1.
        -11    1    3    3    0    0 -0.69066402748E+01  0.51857348808E+01 -0.59584082402E+01  0.10492671498E+02  0.51100000000E-03 0. -1.
         12    1    3    3    0    0 -0.15273316321E+02  0.15582514442E+02 -0.27404575880E+02  0.35029983256E+02  0.00000000000E+00 0. -1.
</event>
<event>
 7    1  0.4119299E-008  0.4614232E+02  0.7816164E-02  0.1320468E+00
        -11   -1    0    0    0    0  0.00000000000E+00  0.00000000000E+00  0.45593999997E+02  0.45594000000E+02  0.51100000000E-03 0. -1.
         11   -1    0    0    0    0 -0.00000000000E+00 -0.00000000000E+00 -0.45593999997E+02  0.45594000000E+02  0.51100000000E-03 0.  1.
    9900012    2    1    2    0    0  0.31493059243E+01  0.42195325641E+02  0.15451532518E+02  0.46142317732E+02  0.99999997391E+01 0.  0.
        -12    1    1    2    0    0 -0.31493059243E+01 -0.42195325641E+02 -0.15451532518E+02  0.45045682268E+02  0.00000000000E+00 0.  1.
         11    1    3    3    0    0 -0.25174069987E+01  0.79367524845E+01  0.41599558899E+01  0.93077715520E+01  0.51100000000E-03 0.  1.
        -11    1    3    3    0    0 -0.72563990716E+00  0.21239148669E+01  0.24314463135E+00  0.22575843748E+01  0.51100000000E-03 0. -1.
         12    1    3    3    0    0  0.63923528302E+01  0.32134658290E+02  0.11048431997E+02  0.34576961806E+02  0.00000000000E+00 0. -1.
</event>
<event>
 7    1  0.4119299E-008  0.4614232E+02  0.7816164E-02  0.1320468E+00
        -11   -1    0    0    0    0  0.00000000000E+00  0.00000000000E+00  0.45593999997E+02  0.45594000000E+02  0.51100000000E-03 0. -1.
         11   -1    0    0    0    0 -0.00000000000E+00 -0.00000000000E+00 -0.45593999997E+02  0.45594000000E+02  0.51100000000E-03 0.  1.
    9900012    2    1    2    0    0 -0.10024354790E+02 -0.25380923274E+01  0.43842716148E+02  0.46142319176E+02  0.10000012904E+02 0.  0.
        -12    1    1    2    0    0  0.10024354790E+02  0.25380923274E+01 -0.43842716148E+02  0.45045680824E+02  0.00000000000E+00 0.  1.
         11    1    3    3    0    0 -0.31738488584E+01  0.17060943904E+01  0.15794214687E+02  0.16200039892E+02  0.51100000000E-03 0. -1.
        -11    1    3    3    0    0 -0.80895303134E+01 -0.32104962913E+01  0.21429786746E+02  0.23129711355E+02  0.51100000000E-03 0.  1.
        -12    1    3    3    0    0  0.12390243813E+01 -0.10336904265E+01  0.66187147148E+01  0.68125679293E+01  0.00000000000E+00 0.  1.
</event>
<event>
 7    1  0.4119299E-008  0.4614232E+02  0.7816164E-02  0.1320468E+00
        -11   -1    0    0    0    0  0.00000000000E+00  0.00000000000E+00  0.45593999997E+02  0.45594000000E+02  0.51100000000E-03 0.  1.
         11   -1    0    0    0    0 -0.00000000000E+00 -0.00000000000E+00 -0.45593999997E+02  0.45594000000E+02  0.51100000000E-03 0. -1.
    9900012    2    1    2    0    0 -0.39994273427E+02  0.70502280934E+01 -0.19490139575E+02  0.46142321364E+02  0.10000032856E+02 0.  0.
        -12    1    1    2    0    0  0.39994273427E+02 -0.70502280934E+01  0.19490139575E+02  0.45045678636E+02  0.00000000000E+00 0.  1.
         11    1    3    3    0    0 -0.15655088864E+02  0.40409567089E+01 -0.97507630136E+01  0.18880903529E+02  0.51100000000E-03 0. -1.
        -11    1    3    3    0    0 -0.15311804686E+01  0.13382676035E+01 -0.26060374872E+01  0.33055870056E+01  0.51100000000E-03 0.  1.
        -12    1    3    3    0    0 -0.22808004094E+02  0.16710037809E+01 -0.71333390746E+01  0.23955830830E+02  0.00000000000E+00 0.  1.
</event>
<event>
 7    1  0.4119299E-008  0.4614232E+02  0.7816164E-02  0.1320468E+00
        -11   -1    0    0    0    0  0.00000000000E+00  0.00000000000E+00  0.45593999997E+02  0.45594000000E+02  0.51100000000E-03 0. -1.
         11   -1    0    0    0    0 -0.00000000000E+00 -0.00000000000E+00 -0.45593999997E+02  0.45594000000E+02  0.51100000000E-03 0.  1.
    9900012    2    1    2    0    0 -0.39332556498E+02 -0.29519291530E+00  0.21953959689E+02  0.46142317792E+02  0.10000000285E+02 0.  0.
        -12    1    1    2    0    0  0.39332556498E+02  0.29519291530E+00 -0.21953959689E+02  0.45045682208E+02  0.00000000000E+00 0.  1.
         11    1    3    3    0    0 -0.35681917453E+02  0.20592093925E+01  0.19579009541E+02  0.40752634164E+02  0.51100000000E-03 0. -1.
        -11    1    3    3    0    0 -0.23368202351E+01 -0.64169474076E+00  0.38483247129E+00  0.24536905354E+01  0.51100000000E-03 0.  1.
         12    1    3    3    0    0 -0.13138188103E+01 -0.17127075671E+01  0.19901176766E+01  0.29359930932E+01  0.00000000000E+00 0. -1.
</event>
<event>
 7    1  0.4119299E-008  0.4614232E+02  0.7816164E-02  0.1320468E+00
        -11   -1    0    0    0    0  0.00000000000E+00  0.00000000000E+00  0.45593999997E+02  0.45594000000E+02  0.51100000000E-03 0. -1.
         11   -1    0    0    0    0 -0.00000000000E+00 -0.00000000000E+00 -0.45593999997E+02  0.45594000000E+02  0.51100000000E-03 0.  1.
    9900012    2    1    2    0    0 -0.19196511392E+02 -0.21710730202E+01  0.40692676243E+02  0.46142317549E+02  0.99999980681E+01 0.  0.
        -12    1    1    2    0    0  0.19196511392E+02  0.21710730202E+01 -0.40692676243E+02  0.45045682451E+02  0.00000000000E+00 0.  1.
         11    1    3    3    0    0 -0.93351101375E+01 -0.14224577857E+00  0.10744776793E+02  0.14234280583E+02  0.51100000000E-03 0. -1.
        -11    1    3    3    0    0 -0.97946672600E+00 -0.10181168785E+01  0.13828671608E+01  0.19769266276E+01  0.51100000000E-03 0.  1.
         12    1    3    3    0    0 -0.88819345283E+01 -0.10107103632E+01  0.28565032289E+02  0.29931110338E+02  0.00000000000E+00 0. -1.
</event>
<event>
 7    1  0.4119299E-008  0.4614232E+02  0.7816164E-02  0.1320468E+00
        -11   -1    0    0    0    0  0.00000000000E+00  0.00000000000E+00  0.45593999997E+02  0.45594000000E+02  0.51100000000E-03 0. -1.
         11   -1    0    0    0    0 -0.00000000000E+00 -0.00000000000E+00 -0.45593999997E+02  0.45594000000E+02  0.51100000000E-03 0.  1.
    9900012    2    1    2    0    0  0.13961242034E+02 -0.40034225164E+02  0.15213745539E+02  0.46142317444E+02  0.99999971048E+01 0.  0.
        -12    1    1    2    0    0 -0.13961242034E+02  0.40034225164E+02 -0.15213745539E+02  0.45045682556E+02  0.00000000000E+00 0.  1.
         11    1    3    3    0    0  0.15199531597E+01 -0.16492699463E+02  0.41125453245E+01  0.17065533173E+02  0.51100000000E-03 0. -1.
        -11    1    3    3    0    0  0.91716386902E+01 -0.15853871215E+02  0.59300593051E+01  0.19251747775E+02  0.51100000000E-03 0.  1.
        -12    1    3    3    0    0  0.32696501837E+01 -0.76876544867E+01  0.51711409097E+01  0.98250364955E+01  0.00000000000E+00 0.  1.
</event>
<event>
 7    1  0.4119299E-008  0.4614232E+02  0.7816164E-02  0.1320468E+00
        -11   -1    0    0    0    0  0.00000000000E+00  0.00000000000E+00  0.45593999997E+02  0.45594000000E+02  0.51100000000E-03 0.  1.
         11   -1    0    0    0    0 -0.00000000000E+00 -0.00000000000E+00 -0.45593999997E+02  0.45594000000E+02  0.51100000000E-03 0. -1.
    9900012    2    1    2    0    0 -0.16686753952E+02  0.23537713011E+02 -0.34592510359E+02  0.46142318030E+02  0.10000002448E+02 0.  0.
        -12    1    1    2    0    0  0.16686753952E+02 -0.23537713011E+02  0.34592510359E+02  0.45045681970E+02  0.00000000000E+00 0.  1.
         11    1    3    3    0    0 -0.12769803372E+02  0.20824250923E+02 -0.29146060547E+02  0.38029069806E+02  0.51100000000E-03 0. -1.
        -11    1    3    3    0    0 -0.25749230687E+00 -0.58513675182E+00 -0.20027402890E+01  0.21022978458E+01  0.51100000000E-03 0.  1.
         12    1    3    3    0    0 -0.36594582734E+01  0.32985988403E+01 -0.34437095233E+01  0.60109503778E+01  0.00000000000E+00 0. -1.
</event>
<event>
 7    1  0.4119299E-008  0.4614232E+02  0.7816164E-02  0.1320468E+00
        -11   -1    0    0    0    0  0.00000000000E+00  0.00000000000E+00  0.45593999997E+02  0.45594000000E+02  0.51100000000E-03 0.  1.
         11   -1    0    0    0    0 -0.00000000000E+00 -0.00000000000E+00 -0.45593999997E+02  0.45594000000E+02  0.51100000000E-03 0. -1.
    9900012    2    1    2    0    0  0.13209149215E+02  0.55922879494E+01 -0.42700798680E+02  0.46142317461E+02  0.99999972649E+01 0.  0.
        -12    1    1    2    0    0 -0.13209149215E+02 -0.55922879494E+01  0.42700798680E+02  0.45045682539E+02  0.00000000000E+00 0.  1.
         11    1    3    3    0    0  0.39371721819E+01  0.12167335453E+01 -0.19048240155E+02  0.19488899881E+02  0.51100000000E-03 0. -1.
        -11    1    3    3    0    0  0.58090678806E+00 -0.13896209460E+01 -0.56571756382E+01  0.58542408161E+01  0.51100000000E-03 0.  1.
        -12    1    3    3    0    0  0.86910702455E+01  0.57651753501E+01 -0.17995382886E+02  0.20799176764E+02  0.00000000000E+00 0.  1.
</event>
<event>
 7    1  0.4119299E-008  0.4614232E+02  0.7816164E-02  0.1320468E+00
        -11   -1    0    0    0    0  0.00000000000E+00  0.00000000000E+00  0.45593999997E+02  0.45594000000E+02  0.51100000000E-03 0. -1.
         11   -1    0    0    0    0 -0.00000000000E+00 -0.00000000000E+00 -0.45593999997E+02  0.45594000000E+02  0.51100000000E-03 0.  1.
    9900012    2    1    2    0    0 -0.24597245273E+02 -0.35201761545E+02  0.13598719746E+02  0.46142315749E+02  0.99999816518E+01 0.  0.
        -12    1    1    2    0    0  0.24597245273E+02  0.35201761545E+02 -0.13598719746E+02  0.45045684251E+02  0.00000000000E+00 0.  1.
         11    1    3    3    0    0 -0.19300331682E+02 -0.24549540717E+02  0.72858356749E+01  0.32066589376E+02  0.51100000000E-03 0. -1.
        -11    1    3    3    0    0 -0.25228572956E+01 -0.24125080549E+01  0.29731507756E+00  0.35033413429E+01  0.51100000000E-03 0.  1.
        -12    1    3    3    0    0 -0.27740562963E+01 -0.82397127727E+01  0.60155689935E+01  0.10572385030E+02  0.00000000000E+00 0.  1.
</event>
<event>
 7    1  0.4119299E-008  0.4614232E+02  0.7816164E-02  0.1320468E+00
        -11   -1    0    0    0    0  0.00000000000E+00  0.00000000000E+00  0.45593999997E+02  0.45594000000E+02  0.51100000000E-03 0.  1.
         11   -1    0    0    0    0 -0.00000000000E+00 -0.00000000000E+00 -0.45593999997E+02  0.45594000000E+02  0.51100000000E-03 0. -1.
    9900012    2    1    2    0    0 -0.13841550356E+02 -0.83971871354E+01 -0.42035843413E+02  0.46142318747E+02  0.10000008992E+02 0.  0.
        -12    1    1    2    0    0  0.13841550356E+02  0.83971871354E+01  0.42035843413E+02  0.45045681253E+02  0.00000000000E+00 0.  1.
         11    1    3    3    0    0 -0.16217657409E+01  0.12258736887E+01 -0.30649471293E+01  0.36778786801E+01  0.51100000000E-03 0. -1.
        -11    1    3    3    0    0 -0.36098311521E+01 -0.69619439069E+01 -0.17301128785E+02  0.18995488975E+02  0.51100000000E-03 0.  1.
         12    1    3    3    0    0 -0.86099534631E+01 -0.26611169172E+01 -0.21669767499E+02  0.23468951092E+02  0.00000000000E+00 0. -1.
</event>
<event>
 7    1  0.4119299E-008  0.4614232E+02  0.7816164E-02  0.1320468E+00
        -11   -1    0    0    0    0  0.00000000000E+00  0.00000000000E+00  0.45593999997E+02  0.45594000000E+02  0.51100000000E-03 0.  1.
         11   -1    0    0    0    0 -0.00000000000E+00 -0.00000000000E+00 -0.45593999997E+02  0.45594000000E+02  0.51100000000E-03 0. -1.
    9900012    2    1    2    0    0 -0.36958286000E+02 -0.20973125976E+02 -0.14944101298E+02  0.46142322284E+02  0.10000041244E+02 0.  0.
        -12    1    1    2    0    0  0.36958286000E+02  0.20973125976E+02  0.14944101298E+02  0.45045677716E+02  0.00000000000E+00 0.  1.
         11    1    3    3    0    0 -0.59049810078E+01 -0.15097502994E+01 -0.16778320859E+01  0.63216506894E+01  0.51100000000E-03 0. -1.
        -11    1    3    3    0    0 -0.16761625677E+02 -0.93906812498E+01 -0.27275429225E+01  0.19405578588E+02  0.51100000000E-03 0.  1.
        -12    1    3    3    0    0 -0.14291679315E+02 -0.10072694427E+02 -0.10538726290E+02  0.20415093007E+02  0.00000000000E+00 0.  1.
</event>
<event>
 7    1  0.4119299E-008  0.4614232E+02  0.7816164E-02  0.1320468E+00
        -11   -1    0    0    0    0  0.00000000000E+00  0.00000000000E+00  0.45593999997E+02  0.45594000000E+02  0.51100000000E-03 0.  1.
         11   -1    0    0    0    0 -0.00000000000E+00 -0.00000000000E+00 -0.45593999997E+02  0.45594000000E+02  0.51100000000E-03 0. -1.
    9900012    2    1    2    0    0 -0.88069002122E+01 -0.22087903024E+02 -0.38258025661E+02  0.46142317867E+02  0.10000000968E+02 0.  0.
        -12    1    1    2    0    0  0.88069002122E+01  0.22087903024E+02  0.38258025661E+02  0.45045682133E+02  0.00000000000E+00 0.  1.
         11    1    3    3    0    0 -0.31280146986E+01 -0.82648174818E+01 -0.91096201516E+01  0.12691606026E+02  0.51100000000E-03 0. -1.
        -11    1    3    3    0    0 -0.20169695941E+01 -0.54722596485E+01 -0.18673005896E+02  0.19562590357E+02  0.51100000000E-03 0.  1.
        -12    1    3    3    0    0 -0.36619159195E+01 -0.83508258939E+01 -0.10475399613E+02  0.13888121484E+02  0.00000000000E+00 0.  1.
</event>
<event>
 7    1  0.4119299E-008  0.4614232E+02  0.7816164E-02  0.1320468E+00
        -11   -1    0    0    0    0  0.00000000000E+00  0.00000000000E+00  0.45593999997E+02  0.45594000000E+02  0.51100000000E-03 0.  1.
         11   -1    0    0    0    0 -0.00000000000E+00 -0.00000000000E+00 -0.45593999997E+02  0.45594000000E+02  0.51100000000E-03 0. -1.
    9900012    2    1    2    0    0 -0.13897376205E+02  0.28042909808E+02 -0.32397092881E+02  0.46142317821E+02  0.10000000542E+02 0.  0.
        -12    1    1    2    0    0  0.13897376205E+02 -0.28042909808E+02  0.32397092881E+02  0.45045682179E+02  0.00000000000E+00 0.  1.
         11    1    3    3    0    0 -0.60459816035E+01  0.64180308860E+01 -0.49752302291E+01  0.10124126140E+02  0.51100000000E-03 0. -1.
        -11    1    3    3    0    0 -0.59208824545E+01  0.13523481799E+02 -0.20030927136E+02  0.24883316724E+02  0.51100000000E-03 0.  1.
         12    1    3    3    0    0 -0.19305121465E+01  0.81013971235E+01 -0.73909355154E+01  0.11134874956E+02  0.00000000000E+00 0. -1.
</event>
<event>
 7    1  0.4119299E-008  0.4614232E+02  0.7816164E-02  0.1320468E+00
        -11   -1    0    0    0    0  0.00000000000E+00  0.00000000000E+00  0.45593999997E+02  0.45594000000E+02  0.51100000000E-03 0.  1.
         11   -1    0    0    0    0 -0.00000000000E+00 -0.00000000000E+00 -0.45593999997E+02  0.45594000000E+02  0.51100000000E-03 0. -1.
    9900012    2    1    2    0    0 -0.28221853908E+02  0.25805805553E+02 -0.23805479339E+02  0.46142317801E+02  0.10000000366E+02 0.  0.
        -12    1    1    2    0    0  0.28221853908E+02 -0.25805805553E+02  0.23805479339E+02  0.45045682199E+02  0.00000000000E+00 0.  1.
         11    1    3    3    0    0 -0.20142700256E+02  0.17424612231E+02 -0.17083184565E+02  0.31641439287E+02  0.51100000000E-03 0. -1.
        -11    1    3    3    0    0 -0.15509572936E+01 -0.65161847679E+00 -0.11728050111E+01  0.20507430412E+01  0.51100000000E-03 0.  1.
        -12    1    3    3    0    0 -0.65281963581E+01  0.90328117981E+01 -0.55494897627E+01  0.12450135473E+02  0.00000000000E+00 0.  1.
</event>
<event>
 7    1  0.4119299E-008  0.4614232E+02  0.7816164E-02  0.1320468E+00
        -11   -1    0    0    0    0  0.00000000000E+00  0.00000000000E+00  0.45593999997E+02  0.45594000000E+02  0.51100000000E-03 0. -1.
         11   -1    0    0    0    0 -0.00000000000E+00 -0.00000000000E+00 -0.45593999997E+02  0.45594000000E+02  0.51100000000E-03 0.  1.
    9900012    2    1    2    0    0 -0.17240492661E+02 -0.18265240546E+02  0.37393314430E+02  0.46142316927E+02  0.99999923968E+01 0.  0.
        -12    1    1    2    0    0  0.17240492661E+02  0.18265240546E+02 -0.37393314430E+02  0.45045683073E+02  0.00000000000E+00 0.  1.
         11    1    3    3    0    0 -0.13545217032E+02 -0.12531235494E+02  0.22935556198E+02  0.29437128016E+02  0.51100000000E-03 0. -1.
        -11    1    3    3    0    0 -0.36966251556E+01 -0.15045038112E+01  0.54621414003E+01  0.67648768057E+01  0.51100000000E-03 0.  1.
        -12    1    3    3    0    0  0.13495268819E-02 -0.42295012415E+01  0.89956168319E+01  0.99403121057E+01  0.00000000000E+00 0.  1.
</event>
<event>
 7    1  0.4119299E-008  0.4614232E+02  0.7816164E-02  0.1320468E+00
        -11   -1    0    0    0    0  0.00000000000E+00  0.00000000000E+00  0.45593999997E+02  0.45594000000E+02  0.51100000000E-03 0.  1.
         11   -1    0    0    0    0 -0.00000000000E+00 -0.00000000000E+00 -0.45593999997E+02  0.45594000000E+02  0.51100000000E-03 0. -1.
    9900012    2    1    2    0    0  0.11430615523E+01  0.29325032341E+02 -0.34173812816E+02  0.46142316590E+02  0.99999893221E+01 0.  0.
        -12    1    1    2    0    0 -0.11430615523E+01 -0.29325032341E+02  0.34173812816E+02  0.45045683410E+02  0.00000000000E+00 0.  1.
         11    1    3    3    0    0 -0.24179422311E+01  0.14366567733E+02 -0.17579401114E+02  0.22831558353E+02  0.51100000000E-03 0. -1.
        -11    1    3    3    0    0  0.36818855501E+00  0.96125383814E+01 -0.70976044695E+01  0.11954599383E+02  0.51100000000E-03 0.  1.
         12    1    3    3    0    0  0.31928152284E+01  0.53459262266E+01 -0.94968072326E+01  0.11356158854E+02  0.00000000000E+00 0. -1.
</event>
<event>
 7    1  0.4119299E-008  0.4614232E+02  0.7816164E-02  0.1320468E+00
        -11   -1    0    0    0    0  0.00000000000E+00  0.00000000000E+00  0.45593999997E+02  0.45594000000E+02  0.51100000000E-03 0.  1.
         11   -1    0    0    0    0 -0.00000000000E+00 -0.00000000000E+00 -0.45593999997E+02  0.45594000000E+02  0.51100000000E-03 0. -1.
    9900012    2    1    2    0    0 -0.41700835869E+02 -0.64391578409E+01 -0.15769939511E+02  0.46142318097E+02  0.10000003067E+02 0.  0.
        -12    1    1    2    0    0  0.41700835869E+02  0.64391578409E+01  0.15769939511E+02  0.45045681903E+02  0.00000000000E+00 0.  1.
         11    1    3    3    0    0 -0.32524831381E+02 -0.52571700799E+01 -0.14725567784E+02  0.36088015192E+02  0.51100000000E-03 0. -1.
        -11    1    3    3    0    0 -0.57352513173E+01  0.88591568015E+00  0.32619950187E+00  0.58124315601E+01  0.51100000000E-03 0.  1.
         12    1    3    3    0    0 -0.34407531705E+01 -0.20679034412E+01 -0.13705712285E+01  0.42418713459E+01  0.00000000000E+00 0. -1.
</event>
<event>
 7    1  0.4119299E-008  0.4614232E+02  0.7816164E-02  0.1320468E+00
        -11   -1    0    0    0    0  0.00000000000E+00  0.00000000000E+00  0.45593999997E+02  0.45594000000E+02  0.51100000000E-03 0.  1.
         11   -1    0    0    0    0 -0.00000000000E+00 -0.00000000000E+00 -0.45593999997E+02  0.45594000000E+02  0.51100000000E-03 0. -1.
    9900012    2    1    2    0    0 -0.28325554518E+02  0.15512718561E+02 -0.31402738473E+02  0.46142318081E+02  0.10000002918E+02 0.  0.
        -12    1    1    2    0    0  0.28325554518E+02 -0.15512718561E+02  0.31402738473E+02  0.45045681919E+02  0.00000000000E+00 0.  1.
         11    1    3    3    0    0 -0.27920938354E+02  0.14947825791E+02 -0.28275454708E+02  0.42456067101E+02  0.51100000000E-03 0. -1.
        -11    1    3    3    0    0  0.62851812408E+00  0.17408354754E+00 -0.45652809049E+00  0.79608936204E+00  0.51100000000E-03 0.  1.
         12    1    3    3    0    0 -0.10331342879E+01  0.39080922318E+00 -0.26707556750E+01  0.28901616185E+01  0.00000000000E+00 0. -1.
</event>
<event>
 7    1  0.4119299E-008  0.4614231E+02  0.7816164E-02  0.1320468E+00
        -11   -1    0    0    0    0  0.00000000000E+00  0.00000000000E+00  0.45593999997E+02  0.45594000000E+02  0.51100000000E-03 0.  1.
         11   -1    0    0    0    0 -0.00000000000E+00 -0.00000000000E+00 -0.45593999997E+02  0.45594000000E+02  0.51100000000E-03 0. -1.
    9900012    2    1    2    0    0 -0.24853063673E+02  0.37268841508E+02 -0.47405157594E+01  0.46142314181E+02  0.99999673533E+01 0.  0.
        -12    1    1    2    0    0  0.24853063673E+02 -0.37268841508E+02  0.47405157594E+01  0.45045685819E+02  0.00000000000E+00 0.  1.
         11    1    3    3    0    0 -0.34639137951E+01  0.10378896388E+02 -0.11185562248E+01  0.10998697982E+02  0.51100000000E-03 0. -1.
        -11    1    3    3    0    0 -0.60939158250E-01  0.27432520192E+00 -0.88326671603E+00  0.92689171438E+00  0.51100000000E-03 0.  1.
        -12    1    3    3    0    0 -0.21328210719E+02  0.26615619918E+02 -0.27386928186E+01  0.34216724485E+02  0.00000000000E+00 0.  1.
</event>
<event>
 7    1  0.4119299E-008  0.4614232E+02  0.7816164E-02  0.1320468E+00
        -11   -1    0    0    0    0  0.00000000000E+00  0.00000000000E+00  0.45593999997E+02  0.45594000000E+02  0.51100000000E-03 0.  1.
         11   -1    0    0    0    0 -0.00000000000E+00 -0.00000000000E+00 -0.45593999997E+02  0.45594000000E+02  0.51100000000E-03 0. -1.
    9900012    2    1    2    0    0  0.36980795271E+02  0.13296053733E+02 -0.22017020666E+02  0.46142318045E+02  0.10000002593E+02 0.  0.
        -12    1    1    2    0    0 -0.36980795271E+02 -0.13296053733E+02  0.22017020666E+02  0.45045681955E+02  0.00000000000E+00 0.  1.
         11    1    3    3    0    0  0.27994934031E+02  0.77282869161E+01 -0.14899998710E+02  0.32641273135E+02  0.51100000000E-03 0. -1.
        -11    1    3    3    0    0  0.92645299268E+01  0.55756000313E+01 -0.74009273413E+01  0.13103150623E+02  0.51100000000E-03 0.  1.
        -12    1    3    3    0    0 -0.27866868621E+00 -0.78332140158E-02  0.28390538620E+00  0.39789428775E+00  0.00000000000E+00 0.  1.
</event>
<event>
 7    1  0.4119299E-008  0.4614232E+02  0.7816164E-02  0.1320468E+00
        -11   -1    0    0    0    0  0.00000000000E+00  0.00000000000E+00  0.45593999997E+02  0.45594000000E+02  0.51100000000E-03 0.  1.
         11   -1    0    0    0    0 -0.00000000000E+00 -0.00000000000E+00 -0.45593999997E+02  0.45594000000E+02  0.51100000000E-03 0. -1.
    9900012    2    1    2    0    0  0.16533813871E+02 -0.16090315662E+02 -0.38689123248E+02  0.46142317444E+02  0.99999971120E+01 0.  0.
        -12    1    1    2    0    0 -0.16533813871E+02  0.16090315662E+02  0.38689123248E+02  0.45045682556E+02  0.00000000000E+00 0.  1.
         11    1    3    3    0    0  0.88944676861E+01 -0.68954423417E+01 -0.10700039883E+02  0.15528990124E+02  0.51100000000E-03 0. -1.
        -11    1    3    3    0    0  0.42757513610E+01 -0.26183775832E+01 -0.11460069994E+02  0.12508843088E+02  0.51100000000E-03 0.  1.
        -12    1    3    3    0    0  0.33635948237E+01 -0.65764957373E+01 -0.16529013371E+02  0.18104484233E+02  0.00000000000E+00 0.  1.
</event>
<event>
 7    1  0.4268311E-008  0.4614232E+02  0.7816164E-02  0.1320468E+00
        -11   -1    0    0    0    0  0.00000000000E+00  0.00000000000E+00  0.45593999997E+02  0.45594000000E+02  0.51100000000E-03 0. -1.
         11   -1    0    0    0    0 -0.00000000000E+00 -0.00000000000E+00 -0.45593999997E+02  0.45594000000E+02  0.51100000000E-03 0.  1.
    9900012    2    1    2    0    0 -0.27626105078E+02  0.19928337439E+02  0.29474957283E+02  0.46142318501E+02  0.10000006749E+02 0.  0.
        -12    1    1    2    0    0  0.27626105078E+02 -0.19928337439E+02 -0.29474957283E+02  0.45045681499E+02  0.00000000000E+00 0.  1.
         11    1    3    3    0    0 -0.20714986726E+02  0.15356914640E+02  0.21757948615E+02  0.33739499559E+02  0.51100000000E-03 0. -1.
        -11    1    3    3    0    0 -0.76247508582E+01  0.34330896831E+01  0.67715919614E+01  0.10759990166E+02  0.51100000000E-03 0.  1.
        -12    1    3    3    0    0  0.71363250642E+00  0.11383331160E+01  0.94541670657E+00  0.16428287757E+01  0.00000000000E+00 0.  1.
</event>
<event>
 7    1  0.4119299E-008  0.4614232E+02  0.7816164E-02  0.1320468E+00
        -11   -1    0    0    0    0  0.00000000000E+00  0.00000000000E+00  0.45593999997E+02  0.45594000000E+02  0.51100000000E-03 0. -1.
         11   -1    0    0    0    0 -0.00000000000E+00 -0.00000000000E+00 -0.45593999997E+02  0.45594000000E+02  0.51100000000E-03 0.  1.
    9900012    2    1    2    0    0 -0.44633250779E+01  0.24991165419E+02  0.37210666375E+02  0.46142319720E+02  0.10000017866E+02 0.  0.
        -12    1    1    2    0    0  0.44633250779E+01 -0.24991165419E+02 -0.37210666375E+02  0.45045680280E+02  0.00000000000E+00 0.  1.
         11    1    3    3    0    0 -0.33551041624E+01  0.14514041233E+02  0.13641497450E+02  0.20199122996E+02  0.51100000000E-03 0. -1.
        -11    1    3    3    0    0 -0.13006283807E+01  0.31565905880E+01  0.92536837317E+01  0.98633848750E+01  0.51100000000E-03 0.  1.
         12    1    3    3    0    0  0.19240746524E+00  0.73205335983E+01  0.14315485194E+02  0.16079811850E+02  0.00000000000E+00 0. -1.
</event>
<event>
 7    1  0.4119299E-008  0.4614232E+02  0.7816164E-02  0.1320468E+00
        -11   -1    0    0    0    0  0.00000000000E+00  0.00000000000E+00  0.45593999997E+02  0.45594000000E+02  0.51100000000E-03 0.  1.
         11   -1    0    0    0    0 -0.00000000000E+00 -0.00000000000E+00 -0.45593999997E+02  0.45594000000E+02  0.51100000000E-03 0. -1.
    9900012    2    1    2    0    0  0.22062286477E+01  0.11507080959E+02 -0.43495207618E+02  0.46142318267E+02  0.10000004614E+02 0.  0.
        -12    1    1    2    0    0 -0.22062286477E+01 -0.11507080959E+02  0.43495207618E+02  0.45045681733E+02  0.00000000000E+00 0.  1.
         11    1    3    3    0    0  0.18618993605E+01  0.67984171102E+01 -0.24741387783E+02  0.25725889958E+02  0.51100000000E-03 0. -1.
        -11    1    3    3    0    0 -0.56257378778E+00  0.50609491112E+01 -0.18764802536E+02  0.19443443873E+02  0.51100000000E-03 0.  1.
        -12    1    3    3    0    0  0.90690307501E+00 -0.35228526237E+00  0.10982700629E-01  0.97298443629E+00  0.00000000000E+00 0.  1.
</event>
<event>
 7    1  0.4119299E-008  0.4614232E+02  0.7816164E-02  0.1320468E+00
        -11   -1    0    0    0    0  0.00000000000E+00  0.00000000000E+00  0.45593999997E+02  0.45594000000E+02  0.51100000000E-03 0.  1.
         11   -1    0    0    0    0 -0.00000000000E+00 -0.00000000000E+00 -0.45593999997E+02  0.45594000000E+02  0.51100000000E-03 0. -1.
    9900012    2    1    2    0    0  0.14262349692E+02 -0.33414121322E+01 -0.42597344624E+02  0.46142318489E+02  0.10000006638E+02 0.  0.
        -12    1    1    2    0    0 -0.14262349692E+02  0.33414121322E+01  0.42597344624E+02  0.45045681511E+02  0.00000000000E+00 0.  1.
         11    1    3    3    0    0  0.91617861491E+01 -0.53898636831E+01 -0.26260205367E+02  0.28329972505E+02  0.51100000000E-03 0. -1.
        -11    1    3    3    0    0  0.43668836389E+00 -0.12697599644E+01 -0.38041460378E+01  0.40341683694E+01  0.51100000000E-03 0.  1.
         12    1    3    3    0    0  0.46638751791E+01  0.33182115154E+01 -0.12532993219E+02  0.13778177615E+02  0.00000000000E+00 0. -1.
</event>
<event>
 7    1  0.4119299E-008  0.4614232E+02  0.7816164E-02  0.1320468E+00
        -11   -1    0    0    0    0  0.00000000000E+00  0.00000000000E+00  0.45593999997E+02  0.45594000000E+02  0.51100000000E-03 0. -1.
         11   -1    0    0    0    0 -0.00000000000E+00 -0.00000000000E+00 -0.45593999997E+02  0.45594000000E+02  0.51100000000E-03 0.  1.
    9900012    2    1    2    0    0  0.14951795914E+01  0.43099595775E+02  0.13011640976E+02  0.46142317422E+02  0.99999969092E+01 0.  0.
        -12    1    1    2    0    0 -0.14951795914E+01 -0.43099595775E+02 -0.13011640976E+02  0.45045682578E+02  0.00000000000E+00 0.  1.
         11    1    3    3    0    0  0.16173938297E+01  0.92953534149E+01  0.31839590882E+01  0.99577685073E+01  0.51100000000E-03 0. -1.
        -11    1    3    3    0    0  0.19105125416E+01  0.16719742118E+02  0.10283228165E+01  0.16859931279E+02  0.51100000000E-03 0.  1.
         12    1    3    3    0    0 -0.20327267800E+01  0.17084500243E+02  0.87993590715E+01  0.19324617636E+02  0.00000000000E+00 0. -1.
</event>
<event>
 7    1  0.4119299E-008  0.4614232E+02  0.7816164E-02  0.1320468E+00
        -11   -1    0    0    0    0  0.00000000000E+00  0.00000000000E+00  0.45593999997E+02  0.45594000000E+02  0.51100000000E-03 0. -1.
         11   -1    0    0    0    0 -0.00000000000E+00 -0.00000000000E+00 -0.45593999997E+02  0.45594000000E+02  0.51100000000E-03 0.  1.
    9900012    2    1    2    0    0 -0.26690532749E+02  0.30689318314E+02  0.19362196799E+02  0.46142318055E+02  0.10000002680E+02 0.  0.
        -12    1    1    2    0    0  0.26690532749E+02 -0.30689318314E+02 -0.19362196799E+02  0.45045681945E+02  0.00000000000E+00 0.  1.
         11    1    3    3    0    0 -0.25658669065E+01  0.60345133564E+01  0.52624551035E+00  0.65784465514E+01  0.51100000000E-03 0.  1.
        -11    1    3    3    0    0 -0.65742314430E+01  0.79205965179E+01  0.35028864122E+01  0.10873204760E+02  0.51100000000E-03 0. -1.
        -12    1    3    3    0    0 -0.17550434399E+02  0.16734208440E+02  0.15333064876E+02  0.28690666744E+02  0.00000000000E+00 0.  1.
</event>
<event>
 7    1  0.4119299E-008  0.4614232E+02  0.7816164E-02  0.1320468E+00
        -11   -1    0    0    0    0  0.00000000000E+00  0.00000000000E+00  0.45593999997E+02  0.45594000000E+02  0.51100000000E-03 0.  1.
         11   -1    0    0    0    0 -0.00000000000E+00 -0.00000000000E+00 -0.45593999997E+02  0.45594000000E+02  0.51100000000E-03 0. -1.
    9900012    2    1    2    0    0  0.12786206071E+01  0.30576490873E+02 -0.33053847105E+02  0.46142317930E+02  0.10000001537E+02 0.  0.
        -12    1    1    2    0    0 -0.12786206071E+01 -0.30576490873E+02  0.33053847105E+02  0.45045682070E+02  0.00000000000E+00 0.  1.
         11    1    3    3    0    0  0.32974235736E+01  0.12247583579E+02 -0.91688142540E+01  0.15650669661E+02  0.51100000000E-03 0. -1.
        -11    1    3    3    0    0 -0.45699562717E+00  0.17659240739E+01 -0.69648044130E+00  0.19525414475E+01  0.51100000000E-03 0.  1.
         12    1    3    3    0    0 -0.15618073393E+01  0.16562983220E+02 -0.23188552409E+02  0.28539106821E+02  0.00000000000E+00 0. -1.
</event>
<event>
 7    1  0.4119299E-008  0.4614232E+02  0.7816164E-02  0.1320468E+00
        -11   -1    0    0    0    0  0.00000000000E+00  0.00000000000E+00  0.45593999997E+02  0.45594000000E+02  0.51100000000E-03 0.  1.
         11   -1    0    0    0    0 -0.00000000000E+00 -0.00000000000E+00 -0.45593999997E+02  0.45594000000E+02  0.51100000000E-03 0. -1.
    9900012    2    1    2    0    0 -0.19078212603E+00  0.38484486050E+02 -0.23409856874E+02  0.46142318040E+02  0.10000002545E+02 0.  0.
        -12    1    1    2    0    0  0.19078212603E+00 -0.38484486050E+02  0.23409856874E+02  0.45045681960E+02  0.00000000000E+00 0.  1.
         11    1    3    3    0    0  0.15595057262E+01  0.14065323348E+01 -0.21789112891E+01  0.30262263607E+01  0.51100000000E-03 0.  1.
        -11    1    3    3    0    0 -0.86661204930E-01  0.15974327450E+02 -0.12203313286E+02  0.20102425303E+02  0.51100000000E-03 0. -1.
         12    1    3    3    0    0 -0.16636266473E+01  0.21103626265E+02 -0.90276322989E+01  0.23013666376E+02  0.00000000000E+00 0. -1.
</event>
<event>
 7    1  0.4119299E-008  0.4614232E+02  0.7816164E-02  0.1320468E+00
        -11   -1    0    0    0    0  0.00000000000E+00  0.00000000000E+00  0.45593999997E+02  0.45594000000E+02  0.51100000000E-03 0. -1.
         11   -1    0    0    0    0 -0.00000000000E+00 -0.00000000000E+00 -0.45593999997E+02  0.45594000000E+02  0.51100000000E-03 0.  1.
    9900012    2    1    2    0    0  0.21069427282E+02  0.34790880243E+02  0.19359426331E+02  0.46142317611E+02  0.99999986277E+01 0.  0.
        -12    1    1    2    0    0 -0.21069427282E+02 -0.34790880243E+02 -0.19359426331E+02  0.45045682389E+02  0.00000000000E+00 0.  1.
         11    1    3    3    0    0  0.56950998366E+01  0.61893800504E+01  0.51130557263E+01  0.98430649027E+01  0.51100000000E-03 0. -1.
        -11    1    3    3    0    0  0.64992006564E+00  0.66737803060E+01  0.48072699316E+01  0.82505505344E+01  0.51100000000E-03 0.  1.
         12    1    3    3    0    0  0.14724407380E+02  0.21927719886E+02  0.94391006730E+01  0.28048702174E+02  0.00000000000E+00 0. -1.
</event>
<event>
 7    1  0.4119299E-008  0.4614232E+02  0.7816164E-02  0.1320468E+00
        -11   -1    0    0    0    0  0.00000000000E+00  0.00000000000E+00  0.45593999997E+02  0.45594000000E+02  0.51100000000E-03 0.  1.
         11   -1    0    0    0    0 -0.00000000000E+00 -0.00000000000E+00 -0.45593999997E+02  0.45594000000E+02  0.51100000000E-03 0. -1.
    9900012    2    1    2    0    0 -0.39942099620E+02  0.54253574509E+01 -0.20107403316E+02  0.46142317703E+02  0.99999994705E+01 0.  0.
        -12    1    1    2    0    0  0.39942099620E+02 -0.54253574509E+01  0.20107403316E+02  0.45045682297E+02  0.00000000000E+00 0.  1.
         11    1    3    3    0    0 -0.52845404627E+01  0.27550447575E+01 -0.29994540413E+01  0.66718336554E+01  0.51100000000E-03 0.  1.
        -11    1    3    3    0    0 -0.32203346449E+02  0.37266356739E+01 -0.13839123472E+02  0.35248612379E+02  0.51100000000E-03 0. -1.
         12    1    3    3    0    0 -0.24542127083E+01 -0.10563229804E+01 -0.32688258026E+01  0.42218716683E+01  0.00000000000E+00 0. -1.
</event>
<event>
 7    1  0.4119299E-008  0.4614232E+02  0.7816164E-02  0.1320468E+00
        -11   -1    0    0    0    0  0.00000000000E+00  0.00000000000E+00  0.45593999997E+02  0.45594000000E+02  0.51100000000E-03 0. -1.
         11   -1    0    0    0    0 -0.00000000000E+00 -0.00000000000E+00 -0.45593999997E+02  0.45594000000E+02  0.51100000000E-03 0.  1.
    9900012    2    1    2    0    0  0.18561547773E+02 -0.33396711260E+01  0.40907565067E+02  0.46142319422E+02  0.10000015149E+02 0.  0.
        -12    1    1    2    0    0 -0.18561547773E+02  0.33396711260E+01 -0.40907565067E+02  0.45045680578E+02  0.00000000000E+00 0.  1.
         11    1    3    3    0    0  0.65235958960E+01  0.12725457871E+01  0.62473985899E+01  0.91217687756E+01  0.51100000000E-03 0. -1.
        -11    1    3    3    0    0  0.83921545635E+01 -0.37761125249E+01  0.22901092313E+02  0.24680909899E+02  0.51100000000E-03 0.  1.
        -12    1    3    3    0    0  0.36457973140E+01 -0.83610438823E+00  0.11759074164E+02  0.12339640748E+02  0.00000000000E+00 0.  1.
</event>
<event>
 7    1  0.4119299E-008  0.4614232E+02  0.7816164E-02  0.1320468E+00
        -11   -1    0    0    0    0  0.00000000000E+00  0.00000000000E+00  0.45593999997E+02  0.45594000000E+02  0.51100000000E-03 0. -1.
         11   -1    0    0    0    0 -0.00000000000E+00 -0.00000000000E+00 -0.45593999997E+02  0.45594000000E+02  0.51100000000E-03 0.  1.
    9900012    2    1    2    0    0  0.67048892451E+01  0.30451935173E+01  0.44439677426E+02  0.46142315711E+02  0.99999813025E+01 0.  0.
        -12    1    1    2    0    0 -0.67048892451E+01 -0.30451935173E+01 -0.44439677426E+02  0.45045684289E+02  0.00000000000E+00 0.  1.
         11    1    3    3    0    0  0.33997406186E+01  0.40171634595E+00  0.91405215682E+01  0.97605710435E+01  0.51100000000E-03 0. -1.
        -11    1    3    3    0    0  0.47093494913E+01  0.44011270615E+01  0.23386827077E+02  0.24258845254E+02  0.51100000000E-03 0.  1.
        -12    1    3    3    0    0 -0.14042008648E+01 -0.17576498902E+01  0.11912328781E+02  0.12122899414E+02  0.00000000000E+00 0.  1.
</event>
<event>
 7    1  0.4119299E-008  0.4614232E+02  0.7816164E-02  0.1320468E+00
        -11   -1    0    0    0    0  0.00000000000E+00  0.00000000000E+00  0.45593999997E+02  0.45594000000E+02  0.51100000000E-03 0. -1.
         11   -1    0    0    0    0 -0.00000000000E+00 -0.00000000000E+00 -0.45593999997E+02  0.45594000000E+02  0.51100000000E-03 0.  1.
    9900012    2    1    2    0    0  0.23934511204E+02  0.33473293260E+02  0.18324606287E+02  0.46142318922E+02  0.10000010585E+02 0.  0.
        -12    1    1    2    0    0 -0.23934511204E+02 -0.33473293260E+02 -0.18324606287E+02  0.45045681078E+02  0.00000000000E+00 0.  1.
         11    1    3    3    0    0  0.10198164709E+02  0.15982835306E+02  0.11039703446E+02  0.21939203274E+02  0.51100000000E-03 0. -1.
        -11    1    3    3    0    0  0.31685887720E+01  0.28654732549E+01  0.40209869838E+01  0.58667902950E+01  0.51100000000E-03 0.  1.
         12    1    3    3    0    0  0.10567757722E+02  0.14624984699E+02  0.32639158568E+01  0.18336325353E+02  0.00000000000E+00 0. -1.
</event>
<event>
 7    1  0.4119299E-008  0.4614232E+02  0.7816164E-02  0.1320468E+00
        -11   -1    0    0    0    0  0.00000000000E+00  0.00000000000E+00  0.45593999997E+02  0.45594000000E+02  0.51100000000E-03 0.  1.
         11   -1    0    0    0    0 -0.00000000000E+00 -0.00000000000E+00 -0.45593999997E+02  0.45594000000E+02  0.51100000000E-03 0. -1.
    9900012    2    1    2    0    0  0.43746428960E+02 -0.10438083500E+02  0.25317720604E+01  0.46142317591E+02  0.99999984524E+01 0.  0.
        -12    1    1    2    0    0 -0.43746428960E+02  0.10438083500E+02 -0.25317720604E+01  0.45045682409E+02  0.00000000000E+00 0.  1.
         11    1    3    3    0    0  0.19510904242E+02 -0.38335073434E+01  0.56616635228E+01  0.20674273796E+02  0.51100000000E-03 0. -1.
        -11    1    3    3    0    0  0.10133790833E+02 -0.13423135590E+01 -0.13822937381E+01  0.10315340933E+02  0.51100000000E-03 0.  1.
         12    1    3    3    0    0  0.14101733885E+02 -0.52622625979E+01 -0.17475977243E+01  0.15152702862E+02  0.00000000000E+00 0. -1.
</event>
<event>
 7    1  0.4119299E-008  0.4614232E+02  0.7816164E-02  0.1320468E+00
        -11   -1    0    0    0    0  0.00000000000E+00  0.00000000000E+00  0.45593999997E+02  0.45594000000E+02  0.51100000000E-03 0.  1.
         11   -1    0    0    0    0 -0.00000000000E+00 -0.00000000000E+00 -0.45593999997E+02  0.45594000000E+02  0.51100000000E-03 0. -1.
    9900012    2    1    2    0    0  0.26647272729E+02  0.19485115352E+02 -0.30649088410E+02  0.46142317804E+02  0.10000000390E+02 0.  0.
        -12    1    1    2    0    0 -0.26647272729E+02 -0.19485115352E+02  0.30649088410E+02  0.45045682196E+02  0.00000000000E+00 0.  1.
         11    1    3    3    0    0  0.13160108353E+02  0.66052771037E+01 -0.10799401428E+02  0.18260482166E+02  0.51100000000E-03 0. -1.
        -11    1    3    3    0    0  0.10884123593E+02  0.11357924515E+02 -0.13034894395E+02  0.20429759367E+02  0.51100000000E-03 0.  1.
         12    1    3    3    0    0  0.26030407830E+01  0.15219137332E+01 -0.68147925873E+01  0.74520762702E+01  0.00000000000E+00 0. -1.
</event>
<event>
 7    1  0.4119299E-008  0.4614232E+02  0.7816164E-02  0.1320468E+00
        -11   -1    0    0    0    0  0.00000000000E+00  0.00000000000E+00  0.45593999997E+02  0.45594000000E+02  0.51100000000E-03 0. -1.
         11   -1    0    0    0    0 -0.00000000000E+00 -0.00000000000E+00 -0.45593999997E+02  0.45594000000E+02  0.51100000000E-03 0.  1.
    9900012    2    1    2    0    0 -0.15949130709E+02  0.31270527276E+02  0.28229290383E+02  0.46142317832E+02  0.10000000644E+02 0.  0.
        -12    1    1    2    0    0  0.15949130709E+02 -0.31270527276E+02 -0.28229290383E+02  0.45045682168E+02  0.00000000000E+00 0.  1.
         11    1    3    3    0    0 -0.21549528942E+00  0.34851810169E+01  0.66871072686E+01  0.75438934790E+01  0.51100000000E-03 0. -1.
        -11    1    3    3    0    0 -0.98692179325E+01  0.18287633917E+02  0.15334415001E+02  0.25826019836E+02  0.51100000000E-03 0.  1.
        -12    1    3    3    0    0 -0.58644174869E+01  0.94977123415E+01  0.62077681135E+01  0.12772404517E+02  0.00000000000E+00 0.  1.
</event>
<event>
 7    1  0.4119299E-008  0.4614232E+02  0.7816164E-02  0.1320468E+00
        -11   -1    0    0    0    0  0.00000000000E+00  0.00000000000E+00  0.45593999997E+02  0.45594000000E+02  0.51100000000E-03 0.  1.
         11   -1    0    0    0    0 -0.00000000000E+00 -0.00000000000E+00 -0.45593999997E+02  0.45594000000E+02  0.51100000000E-03 0. -1.
    9900012    2    1    2    0    0 -0.33376391205E+02  0.32377185414E+01 -0.30077355170E+02  0.46142316464E+02  0.99999881674E+01 0.  0.
        -12    1    1    2    0    0  0.33376391205E+02 -0.32377185414E+01  0.30077355170E+02  0.45045683536E+02  0.00000000000E+00 0.  1.
         11    1    3    3    0    0 -0.26936793860E+02  0.38121102987E+01 -0.28209042847E+02  0.39190217491E+02  0.51100000000E-03 0. -1.
        -11    1    3    3    0    0 -0.32462840092E+01  0.33157128159E+00 -0.15646468384E+01  0.36188975356E+01  0.51100000000E-03 0.  1.
        -12    1    3    3    0    0 -0.31933133361E+01 -0.90596303895E+00 -0.30366548420E+00  0.33332014366E+01  0.00000000000E+00 0.  1.
</event>
<event>
 7    1  0.4119299E-008  0.4614232E+02  0.7816164E-02  0.1320468E+00
        -11   -1    0    0    0    0  0.00000000000E+00  0.00000000000E+00  0.45593999997E+02  0.45594000000E+02  0.51100000000E-03 0. -1.
         11   -1    0    0    0    0 -0.00000000000E+00 -0.00000000000E+00 -0.45593999997E+02  0.45594000000E+02  0.51100000000E-03 0.  1.
    9900012    2    1    2    0    0  0.21622474680E+02  0.36221600405E+02  0.15798029505E+02  0.46142317816E+02  0.10000000499E+02 0.  0.
        -12    1    1    2    0    0 -0.21622474680E+02 -0.36221600405E+02 -0.15798029505E+02  0.45045682184E+02  0.00000000000E+00 0.  1.
         11    1    3    3    0    0  0.47363374903E+01  0.92681959140E+01  0.51042982847E+01  0.11592506613E+02  0.51100000000E-03 0. -1.
        -11    1    3    3    0    0  0.45105043450E+01  0.14910512075E+02  0.47081808370E+01  0.16273751468E+02  0.51100000000E-03 0.  1.
        -12    1    3    3    0    0  0.12375632845E+02  0.12042892416E+02  0.59855503835E+01  0.18276059735E+02  0.00000000000E+00 0.  1.
</event>
<event>
 7    1  0.4119299E-008  0.4614232E+02  0.7816164E-02  0.1320468E+00
        -11   -1    0    0    0    0  0.00000000000E+00  0.00000000000E+00  0.45593999997E+02  0.45594000000E+02  0.51100000000E-03 0.  1.
         11   -1    0    0    0    0 -0.00000000000E+00 -0.00000000000E+00 -0.45593999997E+02  0.45594000000E+02  0.51100000000E-03 0. -1.
    9900012    2    1    2    0    0 -0.49029421699E+01 -0.38008208354E+02 -0.23673841147E+02  0.46142317645E+02  0.99999989393E+01 0.  0.
        -12    1    1    2    0    0  0.49029421699E+01  0.38008208354E+02  0.23673841147E+02  0.45045682355E+02  0.00000000000E+00 0.  1.
         11    1    3    3    0    0 -0.55246867588E+01 -0.16463726184E+02 -0.14767285994E+02  0.22795814956E+02  0.51100000000E-03 0. -1.
        -11    1    3    3    0    0  0.10202995936E+00 -0.12065046301E+02 -0.44639925173E+01  0.12864796221E+02  0.51100000000E-03 0.  1.
         12    1    3    3    0    0  0.51971462957E+00 -0.94794358696E+01 -0.44425626362E+01  0.10481706468E+02  0.00000000000E+00 0. -1.
</event>
<event>
 7    1  0.4119299E-008  0.4614232E+02  0.7816164E-02  0.1320468E+00
        -11   -1    0    0    0    0  0.00000000000E+00  0.00000000000E+00  0.45593999997E+02  0.45594000000E+02  0.51100000000E-03 0.  1.
         11   -1    0    0    0    0 -0.00000000000E+00 -0.00000000000E+00 -0.45593999997E+02  0.45594000000E+02  0.51100000000E-03 0. -1.
    9900012    2    1    2    0    0  0.27278182685E+02  0.18404633723E+02 -0.30761724573E+02  0.46142317723E+02  0.99999996563E+01 0.  0.
        -12    1    1    2    0    0 -0.27278182685E+02 -0.18404633723E+02  0.30761724573E+02  0.45045682277E+02  0.00000000000E+00 0.  1.
         11    1    3    3    0    0  0.14180246229E+01  0.15343605239E+00 -0.12378292521E+01  0.18885332859E+01  0.51100000000E-03 0. -1.
        -11    1    3    3    0    0  0.27709457792E+01  0.36892332510E+00 -0.64653327735E+01  0.70437754837E+01  0.51100000000E-03 0.  1.
         12    1    3    3    0    0  0.23089212283E+02  0.17882274345E+02 -0.23058562547E+02  0.37210008954E+02  0.00000000000E+00 0. -1.
</event>
<event>
 7    1  0.6016010E-008  0.4614232E+02  0.7816164E-02  0.1320468E+00
        -11   -1    0    0    0    0  0.00000000000E+00  0.00000000000E+00  0.45593999997E+02  0.45594000000E+02  0.51100000000E-03 0.  1.
         11   -1    0    0    0    0 -0.00000000000E+00 -0.00000000000E+00 -0.45593999997E+02  0.45594000000E+02  0.51100000000E-03 0. -1.
    9900012    2    1    2    0    0  0.28739811499E+02 -0.15766606832E+02 -0.30895809432E+02  0.46142315451E+02  0.99999789361E+01 0.  0.
        -12    1    1    2    0    0 -0.28739811499E+02  0.15766606832E+02  0.30895809432E+02  0.45045684549E+02  0.00000000000E+00 0.  1.
         11    1    3    3    0    0 -0.13811514214E+00  0.54322974016E-01 -0.10904949803E+01  0.11005482003E+01  0.51100000000E-03 0. -1.
        -11    1    3    3    0    0  0.22114326806E+01 -0.31941443634E+01 -0.59187424461E+01  0.70798661795E+01  0.51100000000E-03 0.  1.
         12    1    3    3    0    0  0.26666493960E+02 -0.12626785443E+02 -0.23886572006E+02  0.37961901071E+02  0.00000000000E+00 0. -1.
</event>
<event>
 7    1  0.4119299E-008  0.4614232E+02  0.7816164E-02  0.1320468E+00
        -11   -1    0    0    0    0  0.00000000000E+00  0.00000000000E+00  0.45593999997E+02  0.45594000000E+02  0.51100000000E-03 0.  1.
         11   -1    0    0    0    0 -0.00000000000E+00 -0.00000000000E+00 -0.45593999997E+02  0.45594000000E+02  0.51100000000E-03 0. -1.
    9900012    2    1    2    0    0  0.14279294407E+02 -0.39925241982E+02 -0.15204946110E+02  0.46142316718E+02  0.99999904925E+01 0.  0.
        -12    1    1    2    0    0 -0.14279294407E+02  0.39925241982E+02  0.15204946110E+02  0.45045683282E+02  0.00000000000E+00 0.  1.
         11    1    3    3    0    0  0.13669379792E+02 -0.31823240624E+02 -0.12511070721E+02  0.36825228832E+02  0.51100000000E-03 0. -1.
        -11    1    3    3    0    0  0.47443888899E-01 -0.15187758330E+01  0.92980178073E+00  0.17814215015E+01  0.51100000000E-03 0.  1.
         12    1    3    3    0    0  0.56247072691E+00 -0.65832255248E+01 -0.36236771700E+01  0.75356663847E+01  0.00000000000E+00 0. -1.
</event>
<event>
 7    1  0.4119299E-008  0.4614232E+02  0.7816164E-02  0.1320468E+00
        -11   -1    0    0    0    0  0.00000000000E+00  0.00000000000E+00  0.45593999997E+02  0.45594000000E+02  0.51100000000E-03 0.  1.
         11   -1    0    0    0    0 -0.00000000000E+00 -0.00000000000E+00 -0.45593999997E+02  0.45594000000E+02  0.51100000000E-03 0. -1.
    9900012    2    1    2    0    0 -0.13050455466E+02  0.81091688560E+01 -0.42344308912E+02  0.46142317580E+02  0.99999983514E+01 0.  0.
        -12    1    1    2    0    0  0.13050455466E+02 -0.81091688560E+01  0.42344308912E+02  0.45045682420E+02  0.00000000000E+00 0.  1.
         11    1    3    3    0    0 -0.83119828572E+01  0.47303981082E+01 -0.28683034197E+02  0.30235445694E+02  0.51100000000E-03 0. -1.
        -11    1    3    3    0    0 -0.41162442747E+01  0.35339959429E+01 -0.55176184191E+01  0.77380041053E+01  0.51100000000E-03 0.  1.
        -12    1    3    3    0    0 -0.62222833360E+00 -0.15522519519E+00 -0.81436562957E+01  0.81688677810E+01  0.00000000000E+00 0.  1.
</event>
<event>
 7    1  0.4119299E-008  0.4614232E+02  0.7816164E-02  0.1320468E+00
        -11   -1    0    0    0    0  0.00000000000E+00  0.00000000000E+00  0.45593999997E+02  0.45594000000E+02  0.51100000000E-03 0. -1.
         11   -1    0    0    0    0 -0.00000000000E+00 -0.00000000000E+00 -0.45593999997E+02  0.45594000000E+02  0.51100000000E-03 0.  1.
    9900012    2    1    2    0    0  0.13654613206E+02 -0.38974257680E+02  0.17990890468E+02  0.46142319149E+02  0.10000012653E+02 0.  0.
        -12    1    1    2    0    0 -0.13654613206E+02  0.38974257680E+02 -0.17990890468E+02  0.45045680851E+02  0.00000000000E+00 0.  1.
         11    1    3    3    0    0  0.80596384116E+01 -0.28628208903E+02  0.15062907004E+02  0.33338015598E+02  0.51100000000E-03 0. -1.
        -11    1    3    3    0    0  0.21170280884E+01 -0.63351368378E+01  0.33617884045E+01  0.74777930045E+01  0.51100000000E-03 0.  1.
        -12    1    3    3    0    0  0.34779467064E+01 -0.40109119391E+01 -0.43380494030E+00  0.53265105465E+01  0.00000000000E+00 0.  1.
</event>
<event>
 7    1  0.4119299E-008  0.4614232E+02  0.7816164E-02  0.1320468E+00
        -11   -1    0    0    0    0  0.00000000000E+00  0.00000000000E+00  0.45593999997E+02  0.45594000000E+02  0.51100000000E-03 0. -1.
         11   -1    0    0    0    0 -0.00000000000E+00 -0.00000000000E+00 -0.45593999997E+02  0.45594000000E+02  0.51100000000E-03 0.  1.
    9900012    2    1    2    0    0  0.16895086642E+02 -0.40639817823E+02  0.95955581060E+01  0.46142317846E+02  0.10000000777E+02 0.  0.
        -12    1    1    2    0    0 -0.16895086642E+02  0.40639817823E+02 -0.95955581060E+01  0.45045682154E+02  0.00000000000E+00 0.  1.
         11    1    3    3    0    0 -0.59214856478E+00 -0.38197001160E+01  0.39697632551E+00  0.38856581634E+01  0.51100000000E-03 0. -1.
        -11    1    3    3    0    0  0.14726907924E+02 -0.34093882548E+02  0.69844191781E+01  0.37789638206E+02  0.51100000000E-03 0.  1.
        -12    1    3    3    0    0  0.27603272821E+01 -0.27262351593E+01  0.22141626024E+01  0.44670214773E+01  0.00000000000E+00 0.  1.
</event>
<event>
 7    1  0.4119299E-008  0.4614232E+02  0.7816164E-02  0.1320468E+00
        -11   -1    0    0    0    0  0.00000000000E+00  0.00000000000E+00  0.45593999997E+02  0.45594000000E+02  0.51100000000E-03 0.  1.
         11   -1    0    0    0    0 -0.00000000000E+00 -0.00000000000E+00 -0.45593999997E+02  0.45594000000E+02  0.51100000000E-03 0. -1.
    9900012    2    1    2    0    0  0.37757064186E+02  0.18525507357E+02 -0.16134535591E+02  0.46142316994E+02  0.99999930043E+01 0.  0.
        -12    1    1    2    0    0 -0.37757064186E+02 -0.18525507357E+02  0.16134535591E+02  0.45045683006E+02  0.00000000000E+00 0.  1.
         11    1    3    3    0    0  0.13140942463E+02  0.10183151525E+02 -0.66393704710E+01  0.17901457603E+02  0.51100000000E-03 0.  1.
        -11    1    3    3    0    0  0.70415955929E+01  0.77772730723E-01 -0.38017854905E+01  0.80027301759E+01  0.51100000000E-03 0. -1.
         12    1    3    3    0    0  0.17574526130E+02  0.82645831010E+01 -0.56933796291E+01  0.20238129215E+02  0.00000000000E+00 0. -1.
</event>
<event>
 7    1  0.4119299E-008  0.4614232E+02  0.7816164E-02  0.1320468E+00
        -11   -1    0    0    0    0  0.00000000000E+00  0.00000000000E+00  0.45593999997E+02  0.45594000000E+02  0.51100000000E-03 0.  1.
         11   -1    0    0    0    0 -0.00000000000E+00 -0.00000000000E+00 -0.45593999997E+02  0.45594000000E+02  0.51100000000E-03 0. -1.
    9900012    2    1    2    0    0  0.21440594344E+02  0.32919238909E+01  0.39478825476E+02  0.46142317524E+02  0.99999978363E+01 0.  0.
        -12    1    1    2    0    0 -0.21440594344E+02 -0.32919238909E+01 -0.39478825476E+02  0.45045682476E+02  0.00000000000E+00 0.  1.
         11    1    3    3    0    0  0.15334140720E+02  0.31884955648E+01  0.24618799134E+02  0.29178547713E+02  0.51100000000E-03 0. -1.
        -11    1    3    3    0    0  0.31109658986E+01 -0.26336309350E+01  0.83693430590E+01  0.93091365993E+01  0.51100000000E-03 0.  1.
         12    1    3    3    0    0  0.29954877256E+01  0.27370592611E+01  0.64906832835E+01  0.76546332114E+01  0.00000000000E+00 0. -1.
</event>
<event>
 7    1  0.4119299E-008  0.4614231E+02  0.7816164E-02  0.1320468E+00
        -11   -1    0    0    0    0  0.00000000000E+00  0.00000000000E+00  0.45593999997E+02  0.45594000000E+02  0.51100000000E-03 0.  1.
         11   -1    0    0    0    0 -0.00000000000E+00 -0.00000000000E+00 -0.45593999997E+02  0.45594000000E+02  0.51100000000E-03 0. -1.
    9900012    2    1    2    0    0 -0.16675374038E+02 -0.15299115609E+02 -0.38948464309E+02  0.46142313084E+02  0.99999573501E+01 0.  0.
        -12    1    1    2    0    0  0.16675374038E+02  0.15299115609E+02  0.38948464309E+02  0.45045686916E+02  0.00000000000E+00 0.  1.
         11    1    3    3    0    0 -0.87028863113E+01 -0.63891242853E+01 -0.19345619826E+02  0.22154325672E+02  0.51100000000E-03 0. -1.
        -11    1    3    3    0    0 -0.75243784283E+01 -0.36199690999E+01 -0.13743835700E+02  0.16081463461E+02  0.51100000000E-03 0.  1.
         12    1    3    3    0    0 -0.44810929799E+00 -0.52900222242E+01 -0.58590087823E+01  0.79065239509E+01  0.00000000000E+00 0. -1.
</event>
<event>
 7    1  0.4119299E-008  0.4614232E+02  0.7816164E-02  0.1320468E+00
        -11   -1    0    0    0    0  0.00000000000E+00  0.00000000000E+00  0.45593999997E+02  0.45594000000E+02  0.51100000000E-03 0. -1.
         11   -1    0    0    0    0 -0.00000000000E+00 -0.00000000000E+00 -0.45593999997E+02  0.45594000000E+02  0.51100000000E-03 0.  1.
    9900012    2    1    2    0    0  0.40666863230E+02  0.19192907774E+02  0.26366664947E+01  0.46142317810E+02  0.10000000444E+02 0.  0.
        -12    1    1    2    0    0 -0.40666863230E+02 -0.19192907774E+02 -0.26366664947E+01  0.45045682190E+02  0.00000000000E+00 0.  1.
         11    1    3    3    0    0  0.24627130152E+02  0.70763971386E+01  0.18590388431E+01  0.25690989893E+02  0.51100000000E-03 0. -1.
        -11    1    3    3    0    0  0.72512009628E+01  0.63590249980E+01 -0.13290578671E+01  0.97356822773E+01  0.51100000000E-03 0.  1.
        -12    1    3    3    0    0  0.87885321146E+01  0.57574856376E+01  0.21066855187E+01  0.10715645640E+02  0.00000000000E+00 0.  1.
</event>
<event>
 7    1  0.4119299E-008  0.4614232E+02  0.7816164E-02  0.1320468E+00
        -11   -1    0    0    0    0  0.00000000000E+00  0.00000000000E+00  0.45593999997E+02  0.45594000000E+02  0.51100000000E-03 0.  1.
         11   -1    0    0    0    0 -0.00000000000E+00 -0.00000000000E+00 -0.45593999997E+02  0.45594000000E+02  0.51100000000E-03 0. -1.
    9900012    2    1    2    0    0  0.35014883549E+02  0.11044278269E+02 -0.26097804907E+02  0.46142316817E+02  0.99999913903E+01 0.  0.
        -12    1    1    2    0    0 -0.35014883549E+02 -0.11044278269E+02  0.26097804907E+02  0.45045683183E+02  0.00000000000E+00 0.  1.
         11    1    3    3    0    0  0.16265216378E+02  0.76774863860E+01 -0.94649127342E+01  0.20324508219E+02  0.51100000000E-03 0.  1.
        -11    1    3    3    0    0  0.17103738114E+02  0.32392850883E+01 -0.12686849601E+02  0.21540356971E+02  0.51100000000E-03 0. -1.
        -12    1    3    3    0    0  0.16459290574E+01  0.12750679464E+00 -0.39460425713E+01  0.42774516268E+01  0.00000000000E+00 0.  1.
</event>
<event>
 7    1  0.4119299E-008  0.4614232E+02  0.7816164E-02  0.1320468E+00
        -11   -1    0    0    0    0  0.00000000000E+00  0.00000000000E+00  0.45593999997E+02  0.45594000000E+02  0.51100000000E-03 0.  1.
         11   -1    0    0    0    0 -0.00000000000E+00 -0.00000000000E+00 -0.45593999997E+02  0.45594000000E+02  0.51100000000E-03 0. -1.
    9900012    2    1    2    0    0  0.44506420265E+02  0.59544684917E+01  0.35827913225E+01  0.46142317261E+02  0.99999954371E+01 0.  0.
        -12    1    1    2    0    0 -0.44506420265E+02 -0.59544684917E+01 -0.35827913225E+01  0.45045682739E+02  0.00000000000E+00 0.  1.
         11    1    3    3    0    0  0.15268545675E+02  0.38650477452E+01 -0.37705000873E+00  0.15754657980E+02  0.51100000000E-03 0. -1.
        -11    1    3    3    0    0  0.21144864147E+01  0.13145271985E+01  0.19799374240E+01  0.31810669621E+01  0.51100000000E-03 0.  1.
         12    1    3    3    0    0  0.27123388175E+02  0.77489354799E+00  0.19799039072E+01  0.27206592318E+02  0.00000000000E+00 0. -1.
</event>
<event>
 7    1  0.4119299E-008  0.4614232E+02  0.7816164E-02  0.1320468E+00
        -11   -1    0    0    0    0  0.00000000000E+00  0.00000000000E+00  0.45593999997E+02  0.45594000000E+02  0.51100000000E-03 0.  1.
         11   -1    0    0    0    0 -0.00000000000E+00 -0.00000000000E+00 -0.45593999997E+02  0.45594000000E+02  0.51100000000E-03 0. -1.
    9900012    2    1    2    0    0  0.29862840377E+02  0.15077181961E+02 -0.30166252796E+02  0.46142318087E+02  0.10000002969E+02 0.  0.
        -12    1    1    2    0    0 -0.29862840377E+02 -0.15077181961E+02  0.30166252796E+02  0.45045681913E+02  0.00000000000E+00 0.  1.
         11    1    3    3    0    0  0.18153342442E+02  0.92411581021E+01 -0.12206975470E+02  0.23747696631E+02  0.51100000000E-03 0.  1.
        -11    1    3    3    0    0  0.16428613576E+01  0.10001572443E+01 -0.12398322183E+01  0.22883382932E+01  0.51100000000E-03 0. -1.
        -12    1    3    3    0    0  0.10066636577E+02  0.48358666149E+01 -0.16719445108E+02  0.20106283162E+02  0.00000000000E+00 0.  1.
</event>
<event>
 7    1  0.4119299E-008  0.4614232E+02  0.7816164E-02  0.1320468E+00
        -11   -1    0    0    0    0  0.00000000000E+00  0.00000000000E+00  0.45593999997E+02  0.45594000000E+02  0.51100000000E-03 0.  1.
         11   -1    0    0    0    0 -0.00000000000E+00 -0.00000000000E+00 -0.45593999997E+02  0.45594000000E+02  0.51100000000E-03 0. -1.
    9900012    2    1    2    0    0  0.22137133344E+02 -0.21391698214E+02 -0.32885499288E+02  0.46142317758E+02  0.99999999759E+01 0.  0.
        -12    1    1    2    0    0 -0.22137133344E+02  0.21391698214E+02  0.32885499288E+02  0.45045682242E+02  0.00000000000E+00 0.  1.
         11    1    3    3    0    0  0.69639866346E+01 -0.63803765338E+01 -0.47918554090E+01  0.10590948639E+02  0.51100000000E-03 0. -1.
        -11    1    3    3    0    0  0.66308543235E+01 -0.48452551065E+01 -0.79875425764E+01  0.11456245580E+02  0.51100000000E-03 0.  1.
         12    1    3    3    0    0  0.85422923857E+01 -0.10166066574E+02 -0.20106101303E+02  0.24095123540E+02  0.00000000000E+00 0. -1.
</event>
<event>
 7    1  0.4119299E-008  0.4614232E+02  0.7816164E-02  0.1320468E+00
        -11   -1    0    0    0    0  0.00000000000E+00  0.00000000000E+00  0.45593999997E+02  0.45594000000E+02  0.51100000000E-03 0.  1.
         11   -1    0    0    0    0 -0.00000000000E+00 -0.00000000000E+00 -0.45593999997E+02  0.45594000000E+02  0.51100000000E-03 0. -1.
    9900012    2    1    2    0    0 -0.12227499324E+02 -0.40992784561E+02 -0.14113584794E+02  0.46142318725E+02  0.10000008787E+02 0.  0.
        -12    1    1    2    0    0  0.12227499324E+02  0.40992784561E+02  0.14113584794E+02  0.45045681275E+02  0.00000000000E+00 0.  1.
         11    1    3    3    0    0 -0.11120577200E+02 -0.24878044388E+02 -0.10568247656E+02  0.29227935072E+02  0.51100000000E-03 0. -1.
        -11    1    3    3    0    0 -0.23554570695E+00 -0.11478935097E+02 -0.40402889005E+01  0.12171498158E+02  0.51100000000E-03 0.  1.
        -12    1    3    3    0    0 -0.87137641785E+00 -0.46358050762E+01  0.49495176257E+00  0.47428854944E+01  0.00000000000E+00 0.  1.
</event>
<event>
 7    1  0.4119299E-008  0.4614231E+02  0.7816164E-02  0.1320468E+00
        -11   -1    0    0    0    0  0.00000000000E+00  0.00000000000E+00  0.45593999997E+02  0.45594000000E+02  0.51100000000E-03 0.  1.
         11   -1    0    0    0    0 -0.00000000000E+00 -0.00000000000E+00 -0.45593999997E+02  0.45594000000E+02  0.51100000000E-03 0. -1.
    9900012    2    1    2    0    0 -0.87336221279E+01 -0.44166807369E+02 -0.14597309024E+01  0.46142313825E+02  0.99999641077E+01 0.  0.
        -12    1    1    2    0    0  0.87336221279E+01  0.44166807369E+02  0.14597309024E+01  0.45045686175E+02  0.00000000000E+00 0.  1.
         11    1    3    3    0    0 -0.59813694591E+01 -0.32887507184E+02  0.46470323679E+00  0.33430238688E+02  0.51100000000E-03 0. -1.
        -11    1    3    3    0    0 -0.10728355971E+01 -0.42179644535E+01  0.16080332664E+01  0.46398245222E+01  0.51100000000E-03 0.  1.
         12    1    3    3    0    0 -0.16794170718E+01 -0.70613357322E+01 -0.35324674056E+01  0.80722506153E+01  0.00000000000E+00 0. -1.
</event>
<event>
 7    1  0.4119299E-008  0.4614232E+02  0.7816164E-02  0.1320468E+00
        -11   -1    0    0    0    0  0.00000000000E+00  0.00000000000E+00  0.45593999997E+02  0.45594000000E+02  0.51100000000E-03 0. -1.
         11   -1    0    0    0    0 -0.00000000000E+00 -0.00000000000E+00 -0.45593999997E+02  0.45594000000E+02  0.51100000000E-03 0.  1.
    9900012    2    1    2    0    0 -0.36669089756E+02 -0.34405390597E+00  0.26160524137E+02  0.46142317190E+02  0.99999947953E+01 0.  0.
        -12    1    1    2    0    0  0.36669089756E+02  0.34405390597E+00 -0.26160524137E+02  0.45045682810E+02  0.00000000000E+00 0.  1.
         11    1    3    3    0    0 -0.26361863941E+01 -0.83296237730E+00  0.18006877493E+01  0.32993607954E+01  0.51100000000E-03 0. -1.
        -11    1    3    3    0    0 -0.20007963012E+01 -0.54223353564E+00 -0.66975579431E+00  0.21784802343E+01  0.51100000000E-03 0.  1.
         12    1    3    3    0    0 -0.32032107061E+02  0.10311420070E+01  0.25029592182E+02  0.40664476161E+02  0.00000000000E+00 0. -1.
</event>
<event>
 7    1  0.4119299E-008  0.4614232E+02  0.7816164E-02  0.1320468E+00
        -11   -1    0    0    0    0  0.00000000000E+00  0.00000000000E+00  0.45593999997E+02  0.45594000000E+02  0.51100000000E-03 0.  1.
         11   -1    0    0    0    0 -0.00000000000E+00 -0.00000000000E+00 -0.45593999997E+02  0.45594000000E+02  0.51100000000E-03 0. -1.
    9900012    2    1    2    0    0  0.61430218036E+01  0.62014743191E+01 -0.44191835854E+02  0.46142319221E+02  0.10000013317E+02 0.  0.
        -12    1    1    2    0    0 -0.61430218036E+01 -0.62014743191E+01  0.44191835854E+02  0.45045680779E+02  0.00000000000E+00 0.  1.
         11    1    3    3    0    0 -0.23485748929E-01  0.54703984422E+00 -0.10797596304E+02  0.10811470315E+02  0.51100000000E-03 0. -1.
        -11    1    3    3    0    0  0.54049717679E+01  0.48348926466E+01 -0.33433965492E+02  0.34211400957E+02  0.51100000000E-03 0.  1.
        -12    1    3    3    0    0  0.76153578471E+00  0.81954182824E+00  0.39725941186E-01  0.11194479488E+01  0.00000000000E+00 0.  1.
</event>
<event>
 7    1  0.4119299E-008  0.4614232E+02  0.7816164E-02  0.1320468E+00
        -11   -1    0    0    0    0  0.00000000000E+00  0.00000000000E+00  0.45593999997E+02  0.45594000000E+02  0.51100000000E-03 0. -1.
         11   -1    0    0    0    0 -0.00000000000E+00 -0.00000000000E+00 -0.45593999997E+02  0.45594000000E+02  0.51100000000E-03 0.  1.
    9900012    2    1    2    0    0 -0.12485037112E+01  0.43365454723E+02  0.12124034014E+02  0.46142316238E+02  0.99999861088E+01 0.  0.
        -12    1    1    2    0    0  0.12485037112E+01 -0.43365454723E+02 -0.12124034014E+02  0.45045683762E+02  0.00000000000E+00 0.  1.
         11    1    3    3    0    0  0.33417810157E+00  0.19920724548E+02  0.62481417359E+01  0.20880282971E+02  0.51100000000E-03 0. -1.
        -11    1    3    3    0    0 -0.34576121794E+01  0.62291258510E+01  0.55667768575E+00  0.71461165088E+01  0.51100000000E-03 0.  1.
        -12    1    3    3    0    0  0.18749303665E+01  0.17215604324E+02  0.53192145926E+01  0.18115916758E+02  0.00000000000E+00 0.  1.
</event>
<event>
 7    1  0.4119299E-008  0.4614231E+02  0.7816164E-02  0.1320468E+00
        -11   -1    0    0    0    0  0.00000000000E+00  0.00000000000E+00  0.45593999997E+02  0.45594000000E+02  0.51100000000E-03 0.  1.
         11   -1    0    0    0    0 -0.00000000000E+00 -0.00000000000E+00 -0.45593999997E+02  0.45594000000E+02  0.51100000000E-03 0. -1.
    9900012    2    1    2    0    0  0.48248008733E+01 -0.30121701789E+02 -0.33143901115E+02  0.46142314266E+02  0.99999681274E+01 0.  0.
        -12    1    1    2    0    0 -0.48248008733E+01  0.30121701789E+02  0.33143901115E+02  0.45045685734E+02  0.00000000000E+00 0.  1.
         11    1    3    3    0    0  0.34102893736E+01 -0.12466939548E+02 -0.12753035971E+02  0.18157493826E+02  0.51100000000E-03 0. -1.
        -11    1    3    3    0    0 -0.16946694906E+01 -0.57454299169E+00 -0.22568812419E+01  0.28801940096E+01  0.51100000000E-03 0.  1.
        -12    1    3    3    0    0  0.31091809903E+01 -0.17080219249E+02 -0.18133983902E+02  0.25104626430E+02  0.00000000000E+00 0.  1.
</event>
<event>
 7    1  0.4119299E-008  0.4614233E+02  0.7816164E-02  0.1320468E+00
        -11   -1    0    0    0    0  0.00000000000E+00  0.00000000000E+00  0.45593999997E+02  0.45594000000E+02  0.51100000000E-03 0. -1.
         11   -1    0    0    0    0 -0.00000000000E+00 -0.00000000000E+00 -0.45593999997E+02  0.45594000000E+02  0.51100000000E-03 0.  1.
    9900012    2    1    2    0    0 -0.15179639478E+02  0.39359536980E+02 -0.15796138805E+02  0.46142327543E+02  0.10000089196E+02 0.  0.
        -12    1    1    2    0    0  0.15179639478E+02 -0.39359536980E+02  0.15796138805E+02  0.45045672457E+02  0.00000000000E+00 0.  1.
         11    1    3    3    0    0 -0.31882973250E+01  0.89796896796E+01  0.51823110069E-02  0.95289083159E+01  0.51100000000E-03 0.  1.
        -11    1    3    3    0    0 -0.48125703666E+01  0.17524144313E+02 -0.71026294239E+01  0.19511632746E+02  0.51100000000E-03 0. -1.
         12    1    3    3    0    0 -0.71787717864E+01  0.12855702988E+02 -0.86986916919E+01  0.17101786481E+02  0.00000000000E+00 0. -1.
</event>
<event>
 7    1  0.4119299E-008  0.4614232E+02  0.7816164E-02  0.1320468E+00
        -11   -1    0    0    0    0  0.00000000000E+00  0.00000000000E+00  0.45593999997E+02  0.45594000000E+02  0.51100000000E-03 0.  1.
         11   -1    0    0    0    0 -0.00000000000E+00 -0.00000000000E+00 -0.45593999997E+02  0.45594000000E+02  0.51100000000E-03 0. -1.
    9900012    2    1    2    0    0  0.10850257001E+02 -0.54211890476E+01 -0.43381979078E+02  0.46142317894E+02  0.10000001208E+02 0.  0.
        -12    1    1    2    0    0 -0.10850257001E+02  0.54211890476E+01  0.43381979078E+02  0.45045682106E+02  0.00000000000E+00 0.  1.
         11    1    3    3    0    0  0.35623123913E+01 -0.34518352720E+01 -0.91889772266E+01  0.10442343561E+02  0.51100000000E-03 0. -1.
        -11    1    3    3    0    0  0.47968847778E+01 -0.16732705555E+00 -0.80167930118E+01  0.93438253606E+01  0.51100000000E-03 0.  1.
         12    1    3    3    0    0  0.24910598317E+01 -0.18020267200E+01 -0.26176208840E+02  0.26356148972E+02  0.00000000000E+00 0. -1.
</event>
<event>
 7    1  0.4119299E-008  0.4614232E+02  0.7816164E-02  0.1320468E+00
        -11   -1    0    0    0    0  0.00000000000E+00  0.00000000000E+00  0.45593999997E+02  0.45594000000E+02  0.51100000000E-03 0. -1.
         11   -1    0    0    0    0 -0.00000000000E+00 -0.00000000000E+00 -0.45593999997E+02  0.45594000000E+02  0.51100000000E-03 0.  1.
    9900012    2    1    2    0    0 -0.12577478574E+02  0.12056389349E+02  0.41539908239E+02  0.46142317988E+02  0.10000002070E+02 0.  0.
        -12    1    1    2    0    0  0.12577478574E+02 -0.12056389349E+02 -0.41539908239E+02  0.45045682012E+02  0.00000000000E+00 0.  1.
         11    1    3    3    0    0 -0.64260836180E+01  0.56683137596E+01  0.19642745960E+02  0.21430394319E+02  0.51100000000E-03 0. -1.
        -11    1    3    3    0    0 -0.23141520217E+01  0.61013679192E+01  0.81727613234E+01  0.10458299000E+02  0.51100000000E-03 0.  1.
        -12    1    3    3    0    0 -0.38372429346E+01  0.28670767013E+00  0.13724400955E+02  0.14253624669E+02  0.00000000000E+00 0.  1.
</event>
<event>
 7    1  0.4119299E-008  0.4614232E+02  0.7816164E-02  0.1320468E+00
        -11   -1    0    0    0    0  0.00000000000E+00  0.00000000000E+00  0.45593999997E+02  0.45594000000E+02  0.51100000000E-03 0. -1.
         11   -1    0    0    0    0 -0.00000000000E+00 -0.00000000000E+00 -0.45593999997E+02  0.45594000000E+02  0.51100000000E-03 0.  1.
    9900012    2    1    2    0    0 -0.15661381860E+02 -0.29877482381E+02  0.29852481822E+02  0.46142317564E+02  0.99999981991E+01 0.  0.
        -12    1    1    2    0    0  0.15661381860E+02  0.29877482381E+02 -0.29852481822E+02  0.45045682436E+02  0.00000000000E+00 0.  1.
         11    1    3    3    0    0 -0.87857271366E+01 -0.19813249406E+02  0.15584791831E+02  0.26695310263E+02  0.51100000000E-03 0. -1.
        -11    1    3    3    0    0 -0.73635309225E+01 -0.84941714362E+01  0.10704747879E+02  0.15523020436E+02  0.51100000000E-03 0.  1.
        -12    1    3    3    0    0  0.48787619914E+00 -0.15700615389E+01  0.35629421122E+01  0.39239868650E+01  0.00000000000E+00 0.  1.
</event>
<event>
 7    1  0.4119299E-008  0.4614232E+02  0.7816164E-02  0.1320468E+00
        -11   -1    0    0    0    0  0.00000000000E+00  0.00000000000E+00  0.45593999997E+02  0.45594000000E+02  0.51100000000E-03 0.  1.
         11   -1    0    0    0    0 -0.00000000000E+00 -0.00000000000E+00 -0.45593999997E+02  0.45594000000E+02  0.51100000000E-03 0. -1.
    9900012    2    1    2    0    0  0.34298627220E+02  0.11613079070E+02 -0.26792798777E+02  0.46142317622E+02  0.99999987294E+01 0.  0.
        -12    1    1    2    0    0 -0.34298627220E+02 -0.11613079070E+02  0.26792798777E+02  0.45045682378E+02  0.00000000000E+00 0.  1.
         11    1    3    3    0    0  0.12833409433E+02  0.51472253365E+01 -0.87773156680E+01  0.16377777533E+02  0.51100000000E-03 0. -1.
        -11    1    3    3    0    0  0.10848387540E+01 -0.81739882845E+00  0.32415868713E+00  0.13964580489E+01  0.51100000000E-03 0.  1.
        -12    1    3    3    0    0  0.20380379033E+02  0.72832525616E+01 -0.18339641796E+02  0.28368082039E+02  0.00000000000E+00 0.  1.
</event>
<event>
 7    1  0.4119299E-008  0.4614232E+02  0.7816164E-02  0.1320468E+00
        -11   -1    0    0    0    0  0.00000000000E+00  0.00000000000E+00  0.45593999997E+02  0.45594000000E+02  0.51100000000E-03 0. -1.
         11   -1    0    0    0    0 -0.00000000000E+00 -0.00000000000E+00 -0.45593999997E+02  0.45594000000E+02  0.51100000000E-03 0.  1.
    9900012    2    1    2    0    0 -0.21624972523E+02  0.35114226506E+02  0.18123607549E+02  0.46142317740E+02  0.99999998038E+01 0.  0.
        -12    1    1    2    0    0  0.21624972523E+02 -0.35114226506E+02 -0.18123607549E+02  0.45045682260E+02  0.00000000000E+00 0.  1.
         11    1    3    3    0    0 -0.91481069137E+01  0.14788697115E+02  0.73018238601E+01  0.18860277156E+02  0.51100000000E-03 0. -1.
        -11    1    3    3    0    0 -0.11248207366E+02  0.19787435834E+02  0.79448532261E+01  0.24107788759E+02  0.51100000000E-03 0.  1.
        -12    1    3    3    0    0 -0.12286582431E+01  0.53809355732E+00  0.28769304630E+01  0.31742518242E+01  0.00000000000E+00 0.  1.
</event>
<event>
 7    1  0.4119299E-008  0.4614232E+02  0.7816164E-02  0.1320468E+00
        -11   -1    0    0    0    0  0.00000000000E+00  0.00000000000E+00  0.45593999997E+02  0.45594000000E+02  0.51100000000E-03 0.  1.
         11   -1    0    0    0    0 -0.00000000000E+00 -0.00000000000E+00 -0.45593999997E+02  0.45594000000E+02  0.51100000000E-03 0. -1.
    9900012    2    1    2    0    0  0.31385459030E+02 -0.31602948565E+02 -0.67320258334E+01  0.46142316873E+02  0.99999919040E+01 0.  0.
        -12    1    1    2    0    0 -0.31385459030E+02  0.31602948565E+02  0.67320258334E+01  0.45045683127E+02  0.00000000000E+00 0.  1.
         11    1    3    3    0    0  0.26025552316E+02 -0.25296744628E+02 -0.37098363921E+01  0.36483113196E+02  0.51100000000E-03 0. -1.
        -11    1    3    3    0    0  0.14305766551E+01 -0.13934946891E+01  0.95801353632E+00  0.22149869552E+01  0.51100000000E-03 0.  1.
         12    1    3    3    0    0  0.39293300585E+01 -0.49127092480E+01 -0.39802029776E+01  0.74442167222E+01  0.00000000000E+00 0. -1.
</event>
<event>
 7    1  0.4119299E-008  0.4614232E+02  0.7816164E-02  0.1320468E+00
        -11   -1    0    0    0    0  0.00000000000E+00  0.00000000000E+00  0.45593999997E+02  0.45594000000E+02  0.51100000000E-03 0. -1.
         11   -1    0    0    0    0 -0.00000000000E+00 -0.00000000000E+00 -0.45593999997E+02  0.45594000000E+02  0.51100000000E-03 0.  1.
    9900012    2    1    2    0    0  0.13717091227E+02  0.38757968475E+02  0.18405837126E+02  0.46142317051E+02  0.99999935249E+01 0.  0.
        -12    1    1    2    0    0 -0.13717091227E+02 -0.38757968475E+02 -0.18405837126E+02  0.45045682949E+02  0.00000000000E+00 0.  1.
         11    1    3    3    0    0  0.60688625682E+01  0.18361970426E+02  0.90836459670E+01  0.21365993427E+02  0.51100000000E-03 0. -1.
        -11    1    3    3    0    0 -0.33001234658E+00  0.49652229490E+01 -0.17333976992E+00  0.49791961218E+01  0.51100000000E-03 0.  1.
        -12    1    3    3    0    0  0.79782410058E+01  0.15430775099E+02  0.94955309291E+01  0.19797127502E+02  0.00000000000E+00 0.  1.
</event>
<event>
 7    1  0.4119299E-008  0.4614232E+02  0.7816164E-02  0.1320468E+00
        -11   -1    0    0    0    0  0.00000000000E+00  0.00000000000E+00  0.45593999997E+02  0.45594000000E+02  0.51100000000E-03 0.  1.
         11   -1    0    0    0    0 -0.00000000000E+00 -0.00000000000E+00 -0.45593999997E+02  0.45594000000E+02  0.51100000000E-03 0. -1.
    9900012    2    1    2    0    0  0.30586576041E+02 -0.64410428125E+01 -0.32435902818E+02  0.46142318098E+02  0.10000003070E+02 0.  0.
        -12    1    1    2    0    0 -0.30586576041E+02  0.64410428125E+01  0.32435902818E+02  0.45045681902E+02  0.00000000000E+00 0.  1.
         11    1    3    3    0    0  0.10466959257E+01  0.12829564378E+01 -0.21929874085E+01  0.27478616444E+01  0.51100000000E-03 0. -1.
        -11    1    3    3    0    0  0.11038107879E+02 -0.30509560875E+01 -0.74236600095E+01  0.13647669647E+02  0.51100000000E-03 0.  1.
         12    1    3    3    0    0  0.18501772236E+02 -0.46730431628E+01 -0.22819255400E+02  0.29746786806E+02  0.00000000000E+00 0. -1.
</event>
<event>
 7    1  0.4119299E-008  0.4614232E+02  0.7816164E-02  0.1320468E+00
        -11   -1    0    0    0    0  0.00000000000E+00  0.00000000000E+00  0.45593999997E+02  0.45594000000E+02  0.51100000000E-03 0.  1.
         11   -1    0    0    0    0 -0.00000000000E+00 -0.00000000000E+00 -0.45593999997E+02  0.45594000000E+02  0.51100000000E-03 0. -1.
    9900012    2    1    2    0    0  0.29927815895E+02  0.26496007963E+02 -0.20770192414E+02  0.46142317686E+02  0.99999993133E+01 0.  0.
        -12    1    1    2    0    0 -0.29927815895E+02 -0.26496007963E+02  0.20770192414E+02  0.45045682314E+02  0.00000000000E+00 0.  1.
         11    1    3    3    0    0  0.11046382616E+02  0.12510450550E+02 -0.95717384596E+01  0.19239337807E+02  0.51100000000E-03 0. -1.
        -11    1    3    3    0    0  0.56571286100E+01  0.15337434280E+01 -0.64760756118E+00  0.58970220304E+01  0.51100000000E-03 0.  1.
         12    1    3    3    0    0  0.13224304669E+02  0.12451813985E+02 -0.10550846393E+02  0.21005957848E+02  0.00000000000E+00 0. -1.
</event>
<event>
 7    1  0.4119299E-008  0.4614232E+02  0.7816164E-02  0.1320468E+00
        -11   -1    0    0    0    0  0.00000000000E+00  0.00000000000E+00  0.45593999997E+02  0.45594000000E+02  0.51100000000E-03 0.  1.
         11   -1    0    0    0    0 -0.00000000000E+00 -0.00000000000E+00 -0.45593999997E+02  0.45594000000E+02  0.51100000000E-03 0. -1.
    9900012    2    1    2    0    0 -0.13340807654E+02 -0.98273805320E+01 -0.41887456301E+02  0.46142317051E+02  0.99999935212E+01 0.  0.
        -12    1    1    2    0    0  0.13340807654E+02  0.98273805320E+01  0.41887456301E+02  0.45045682949E+02  0.00000000000E+00 0.  1.
         11    1    3    3    0    0 -0.38595024151E+01 -0.32373195861E+01 -0.17736937590E+02  0.18438409702E+02  0.51100000000E-03 0. -1.
        -11    1    3    3    0    0 -0.35089360540E+01 -0.34321732577E+01 -0.17682125951E+02  0.18350749955E+02  0.51100000000E-03 0.  1.
        -12    1    3    3    0    0 -0.59723691853E+01 -0.31578876881E+01 -0.64683927603E+01  0.93531573940E+01  0.00000000000E+00 0.  1.
</event>
<event>
 7    1  0.4119299E-008  0.4614232E+02  0.7816164E-02  0.1320468E+00
        -11   -1    0    0    0    0  0.00000000000E+00  0.00000000000E+00  0.45593999997E+02  0.45594000000E+02  0.51100000000E-03 0. -1.
         11   -1    0    0    0    0 -0.00000000000E+00 -0.00000000000E+00 -0.45593999997E+02  0.45594000000E+02  0.51100000000E-03 0.  1.
    9900012    2    1    2    0    0  0.19492401678E+02 -0.49858574693E+01  0.40302617710E+02  0.46142317719E+02  0.99999996162E+01 0.  0.
        -12    1    1    2    0    0 -0.19492401678E+02  0.49858574693E+01 -0.40302617710E+02  0.45045682281E+02  0.00000000000E+00 0.  1.
         11    1    3    3    0    0  0.79539696699E+01 -0.63264288555E+01  0.18918329503E+02  0.21475393524E+02  0.51100000000E-03 0. -1.
        -11    1    3    3    0    0  0.38086396621E+01  0.13952094838E+01  0.42781331608E+01  0.58953175641E+01  0.51100000000E-03 0.  1.
        -12    1    3    3    0    0  0.77297923459E+01 -0.54638097531E-01  0.17106155046E+02  0.18771606631E+02  0.00000000000E+00 0.  1.
</event>
<event>
 7    1  0.4119299E-008  0.4614232E+02  0.7816164E-02  0.1320468E+00
        -11   -1    0    0    0    0  0.00000000000E+00  0.00000000000E+00  0.45593999997E+02  0.45594000000E+02  0.51100000000E-03 0.  1.
         11   -1    0    0    0    0 -0.00000000000E+00 -0.00000000000E+00 -0.45593999997E+02  0.45594000000E+02  0.51100000000E-03 0. -1.
    9900012    2    1    2    0    0 -0.20148955474E+02 -0.29701000068E+02 -0.27221015589E+02  0.46142317616E+02  0.99999986770E+01 0.  0.
        -12    1    1    2    0    0  0.20148955474E+02  0.29701000068E+02  0.27221015589E+02  0.45045682384E+02  0.00000000000E+00 0.  1.
         11    1    3    3    0    0 -0.12626506556E+02 -0.13785304620E+02 -0.10712718606E+02  0.21545895931E+02  0.51100000000E-03 0. -1.
        -11    1    3    3    0    0 -0.21942626308E+01 -0.32433231150E+01 -0.13719673539E+01  0.41492442688E+01  0.51100000000E-03 0.  1.
        -12    1    3    3    0    0 -0.53281862880E+01 -0.12672372333E+02 -0.15136329629E+02  0.20447177416E+02  0.00000000000E+00 0.  1.
</event>
<event>
 7    1  0.4119299E-008  0.4614232E+02  0.7816164E-02  0.1320468E+00
        -11   -1    0    0    0    0  0.00000000000E+00  0.00000000000E+00  0.45593999997E+02  0.45594000000E+02  0.51100000000E-03 0. -1.
         11   -1    0    0    0    0 -0.00000000000E+00 -0.00000000000E+00 -0.45593999997E+02  0.45594000000E+02  0.51100000000E-03 0.  1.
    9900012    2    1    2    0    0 -0.25121068394E+02 -0.22011180106E+02  0.30225044849E+02  0.46142318042E+02  0.10000002565E+02 0.  0.
        -12    1    1    2    0    0  0.25121068394E+02  0.22011180106E+02 -0.30225044849E+02  0.45045681958E+02  0.00000000000E+00 0.  1.
         11    1    3    3    0    0 -0.37732696772E+01 -0.63187200973E+01  0.76367224189E+01  0.10605815258E+02  0.51100000000E-03 0. -1.
        -11    1    3    3    0    0 -0.29938463309E+01  0.11077153043E+00  0.12098981371E+01  0.32309812671E+01  0.51100000000E-03 0.  1.
        -12    1    3    3    0    0 -0.18353952386E+02 -0.15803231539E+02  0.21378424293E+02  0.32305521517E+02  0.00000000000E+00 0.  1.
</event>
<event>
 7    1  0.4119299E-008  0.4614232E+02  0.7816164E-02  0.1320468E+00
        -11   -1    0    0    0    0  0.00000000000E+00  0.00000000000E+00  0.45593999997E+02  0.45594000000E+02  0.51100000000E-03 0. -1.
         11   -1    0    0    0    0 -0.00000000000E+00 -0.00000000000E+00 -0.45593999997E+02  0.45594000000E+02  0.51100000000E-03 0.  1.
    9900012    2    1    2    0    0 -0.56881847302E+01  0.23673538240E+02  0.37898833633E+02  0.46142318197E+02  0.10000003978E+02 0.  0.
        -12    1    1    2    0    0  0.56881847302E+01 -0.23673538240E+02 -0.37898833633E+02  0.45045681803E+02  0.00000000000E+00 0.  1.
         11    1    3    3    0    0 -0.30725953158E+01  0.79062559316E+01  0.21029503688E+02  0.22675752478E+02  0.51100000000E-03 0. -1.
        -11    1    3    3    0    0 -0.27577176515E+01  0.15459540473E+02  0.16961963211E+02  0.23115159409E+02  0.51100000000E-03 0.  1.
        -12    1    3    3    0    0  0.14212823700E+00  0.30774183584E+00 -0.92633265352E-01  0.35140631060E+00  0.00000000000E+00 0.  1.
</event>
<event>
 7    1  0.4119299E-008  0.4614232E+02  0.7816164E-02  0.1320468E+00
        -11   -1    0    0    0    0  0.00000000000E+00  0.00000000000E+00  0.45593999997E+02  0.45594000000E+02  0.51100000000E-03 0. -1.
         11   -1    0    0    0    0 -0.00000000000E+00 -0.00000000000E+00 -0.45593999997E+02  0.45594000000E+02  0.51100000000E-03 0.  1.
    9900012    2    1    2    0    0 -0.17401316294E+02 -0.41241186961E+02 -0.50469926196E+01  0.46142318240E+02  0.10000004366E+02 0.  0.
        -12    1    1    2    0    0  0.17401316294E+02  0.41241186961E+02  0.50469926196E+01  0.45045681760E+02  0.00000000000E+00 0.  1.
         11    1    3    3    0    0 -0.45769653556E+01 -0.69820425824E+01  0.13228494886E+00  0.83495526861E+01  0.51100000000E-03 0. -1.
        -11    1    3    3    0    0 -0.19244109636E+01 -0.16003892075E+02 -0.32508417376E+01  0.16443718904E+02  0.51100000000E-03 0.  1.
        -12    1    3    3    0    0 -0.10899939975E+02 -0.18255252303E+02 -0.19284358308E+01  0.21349046650E+02  0.00000000000E+00 0.  1.
</event>
<event>
 7    1  0.4119299E-008  0.4614232E+02  0.7816164E-02  0.1320468E+00
        -11   -1    0    0    0    0  0.00000000000E+00  0.00000000000E+00  0.45593999997E+02  0.45594000000E+02  0.51100000000E-03 0. -1.
         11   -1    0    0    0    0 -0.00000000000E+00 -0.00000000000E+00 -0.45593999997E+02  0.45594000000E+02  0.51100000000E-03 0.  1.
    9900012    2    1    2    0    0 -0.31193878282E+02 -0.22133412286E+02  0.23794272359E+02  0.46142318978E+02  0.10000011093E+02 0.  0.
        -12    1    1    2    0    0  0.31193878282E+02  0.22133412286E+02 -0.23794272359E+02  0.45045681022E+02  0.00000000000E+00 0.  1.
         11    1    3    3    0    0 -0.29974495843E+02 -0.21236251902E+02  0.23248039340E+02  0.43473211628E+02  0.51100000000E-03 0. -1.
        -11    1    3    3    0    0 -0.10929568270E+01 -0.85316122577E+00  0.13017403449E+01  0.19018325083E+01  0.51100000000E-03 0.  1.
        -12    1    3    3    0    0 -0.12642561220E+00 -0.43999158736E-01 -0.75550732645E+00  0.76727484106E+00  0.00000000000E+00 0.  1.
</event>
<event>
 7    1  0.4119299E-008  0.4614232E+02  0.7816164E-02  0.1320468E+00
        -11   -1    0    0    0    0  0.00000000000E+00  0.00000000000E+00  0.45593999997E+02  0.45594000000E+02  0.51100000000E-03 0.  1.
         11   -1    0    0    0    0 -0.00000000000E+00 -0.00000000000E+00 -0.45593999997E+02  0.45594000000E+02  0.51100000000E-03 0. -1.
    9900012    2    1    2    0    0  0.36583014807E+02  0.40210340168E+01 -0.25973597866E+02  0.46142317931E+02  0.10000001549E+02 0.  0.
        -12    1    1    2    0    0 -0.36583014807E+02 -0.40210340168E+01  0.25973597866E+02  0.45045682069E+02  0.00000000000E+00 0.  1.
         11    1    3    3    0    0  0.94719640663E+01 -0.61757477279E+00 -0.10147398007E+02  0.13894933913E+02  0.51100000000E-03 0. -1.
        -11    1    3    3    0    0  0.30186340401E+01 -0.12836568239E+01 -0.20797963297E+01  0.38840030051E+01  0.51100000000E-03 0.  1.
         12    1    3    3    0    0  0.24092416701E+02  0.59222656135E+01 -0.13746403529E+02  0.28363381013E+02  0.00000000000E+00 0. -1.
</event>
<event>
 7    1  0.4119299E-008  0.4614232E+02  0.7816164E-02  0.1320468E+00
        -11   -1    0    0    0    0  0.00000000000E+00  0.00000000000E+00  0.45593999997E+02  0.45594000000E+02  0.51100000000E-03 0.  1.
         11   -1    0    0    0    0 -0.00000000000E+00 -0.00000000000E+00 -0.45593999997E+02  0.45594000000E+02  0.51100000000E-03 0. -1.
    9900012    2    1    2    0    0  0.15773600136E+02  0.20934134964E+02 -0.36634259403E+02  0.46142318410E+02  0.10000005913E+02 0.  0.
        -12    1    1    2    0    0 -0.15773600136E+02 -0.20934134964E+02  0.36634259403E+02  0.45045681590E+02  0.00000000000E+00 0.  1.
         11    1    3    3    0    0 -0.52286581903E+00  0.44229893037E+00 -0.40751641800E+01  0.41323093257E+01  0.51100000000E-03 0. -1.
        -11    1    3    3    0    0  0.55698350736E+01  0.52864438765E+01 -0.69720274373E+01  0.10372016123E+02  0.51100000000E-03 0.  1.
         12    1    3    3    0    0  0.10726630881E+02  0.15205392157E+02 -0.25587067786E+02  0.31637992961E+02  0.00000000000E+00 0. -1.
</event>
<event>
 7    1  0.4119299E-008  0.4614232E+02  0.7816164E-02  0.1320468E+00
        -11   -1    0    0    0    0  0.00000000000E+00  0.00000000000E+00  0.45593999997E+02  0.45594000000E+02  0.51100000000E-03 0.  1.
         11   -1    0    0    0    0 -0.00000000000E+00 -0.00000000000E+00 -0.45593999997E+02  0.45594000000E+02  0.51100000000E-03 0. -1.
    9900012    2    1    2    0    0  0.30643259429E+02  0.18889833551E+02 -0.27079113174E+02  0.46142317296E+02  0.99999957546E+01 0.  0.
        -12    1    1    2    0    0 -0.30643259429E+02 -0.18889833551E+02  0.27079113174E+02  0.45045682704E+02  0.00000000000E+00 0.  1.
         11    1    3    3    0    0  0.81249652473E+01  0.42485787018E+01 -0.74913511881E+01  0.11840009465E+02  0.51100000000E-03 0. -1.
        -11    1    3    3    0    0  0.14652175952E+02  0.60204627929E+01 -0.75913930916E+01  0.17565918186E+02  0.51100000000E-03 0.  1.
        -12    1    3    3    0    0  0.78661182292E+01  0.86207920568E+01 -0.11996368894E+02  0.16736389644E+02  0.00000000000E+00 0.  1.
</event>
<event>
 7    1  0.4119299E-008  0.4614232E+02  0.7816164E-02  0.1320468E+00
        -11   -1    0    0    0    0  0.00000000000E+00  0.00000000000E+00  0.45593999997E+02  0.45594000000E+02  0.51100000000E-03 0. -1.
         11   -1    0    0    0    0 -0.00000000000E+00 -0.00000000000E+00 -0.45593999997E+02  0.45594000000E+02  0.51100000000E-03 0.  1.
    9900012    2    1    2    0    0  0.60032523558E+01 -0.31582169390E+02  0.31553780237E+02  0.46142317527E+02  0.99999978633E+01 0.  0.
        -12    1    1    2    0    0 -0.60032523558E+01  0.31582169390E+02 -0.31553780237E+02  0.45045682473E+02  0.00000000000E+00 0.  1.
         11    1    3    3    0    0  0.62457419396E+00 -0.99937152713E+01  0.14827863491E+02  0.17892176329E+02  0.51100000000E-03 0.  1.
        -11    1    3    3    0    0  0.35176931560E+01 -0.19289865571E+02  0.13147916268E+02  0.23608066023E+02  0.51100000000E-03 0. -1.
         12    1    3    3    0    0  0.18609850058E+01 -0.22985885481E+01  0.35780004777E+01  0.46420751743E+01  0.00000000000E+00 0. -1.
</event>
<event>
 7    1  0.4119299E-008  0.4614232E+02  0.7816164E-02  0.1320468E+00
        -11   -1    0    0    0    0  0.00000000000E+00  0.00000000000E+00  0.45593999997E+02  0.45594000000E+02  0.51100000000E-03 0.  1.
         11   -1    0    0    0    0 -0.00000000000E+00 -0.00000000000E+00 -0.45593999997E+02  0.45594000000E+02  0.51100000000E-03 0. -1.
    9900012    2    1    2    0    0 -0.31910435296E+02 -0.20437980158E+02 -0.24354187969E+02  0.46142318905E+02  0.10000010430E+02 0.  0.
        -12    1    1    2    0    0  0.31910435296E+02  0.20437980158E+02  0.24354187969E+02  0.45045681095E+02  0.00000000000E+00 0.  1.
         11    1    3    3    0    0 -0.13823702238E+02 -0.14058145127E+02 -0.11880366812E+02  0.23018890151E+02  0.51100000000E-03 0. -1.
        -11    1    3    3    0    0 -0.10163534282E+02 -0.40304395276E+01 -0.51699336564E+01  0.12094217054E+02  0.51100000000E-03 0.  1.
         12    1    3    3    0    0 -0.79231987765E+01 -0.23493955031E+01 -0.73038875010E+01  0.11029211699E+02  0.00000000000E+00 0. -1.
</event>
<event>
 7    1  0.4119299E-008  0.4614230E+02  0.7816164E-02  0.1320468E+00
        -11   -1    0    0    0    0  0.00000000000E+00  0.00000000000E+00  0.45593999997E+02  0.45594000000E+02  0.51100000000E-03 0.  1.
         11   -1    0    0    0    0 -0.00000000000E+00 -0.00000000000E+00 -0.45593999997E+02  0.45594000000E+02  0.51100000000E-03 0. -1.
    9900012    2    1    2    0    0  0.71035969180E+01 -0.28513241581E+00 -0.44481145041E+02  0.46142304825E+02  0.99998820390E+01 0.  0.
        -12    1    1    2    0    0 -0.71035969180E+01  0.28513241581E+00  0.44481145041E+02  0.45045695175E+02  0.00000000000E+00 0.  1.
         11    1    3    3    0    0  0.65019791215E+01  0.25169128369E+01 -0.29174645830E+02  0.29996175462E+02  0.51100000000E-03 0. -1.
        -11    1    3    3    0    0  0.12450592078E+01  0.74361768407E+00 -0.58281737918E+01  0.60058929144E+01  0.51100000000E-03 0.  1.
        -12    1    3    3    0    0 -0.64344141131E+00 -0.35456629368E+01 -0.94783254183E+01  0.10140236449E+02  0.00000000000E+00 0.  1.
</event>
<event>
 7    1  0.4119299E-008  0.4614232E+02  0.7816164E-02  0.1320468E+00
        -11   -1    0    0    0    0  0.00000000000E+00  0.00000000000E+00  0.45593999997E+02  0.45594000000E+02  0.51100000000E-03 0.  1.
         11   -1    0    0    0    0 -0.00000000000E+00 -0.00000000000E+00 -0.45593999997E+02  0.45594000000E+02  0.51100000000E-03 0. -1.
    9900012    2    1    2    0    0  0.24125809689E+02 -0.13553668444E+02 -0.35543731647E+02  0.46142317845E+02  0.10000000764E+02 0.  0.
        -12    1    1    2    0    0 -0.24125809689E+02  0.13553668444E+02  0.35543731647E+02  0.45045682155E+02  0.00000000000E+00 0.  1.
         11    1    3    3    0    0  0.53760894718E+01 -0.73598698425E+01 -0.77185607825E+01  0.11943458583E+02  0.51100000000E-03 0.  1.
        -11    1    3    3    0    0  0.63589251989E+01 -0.29323491645E+01 -0.85153902004E+01  0.11024811646E+02  0.51100000000E-03 0. -1.
        -12    1    3    3    0    0  0.12390795019E+02 -0.32614494369E+01 -0.19309780664E+02  0.23174047616E+02  0.00000000000E+00 0.  1.
</event>
<event>
 7    1  0.4119299E-008  0.4614232E+02  0.7816164E-02  0.1320468E+00
        -11   -1    0    0    0    0  0.00000000000E+00  0.00000000000E+00  0.45593999997E+02  0.45594000000E+02  0.51100000000E-03 0.  1.
         11   -1    0    0    0    0 -0.00000000000E+00 -0.00000000000E+00 -0.45593999997E+02  0.45594000000E+02  0.51100000000E-03 0. -1.
    9900012    2    1    2    0    0 -0.30095796404E+02  0.12200838787E+02 -0.31216918979E+02  0.46142318089E+02  0.10000002993E+02 0.  0.
        -12    1    1    2    0    0  0.30095796404E+02 -0.12200838787E+02  0.31216918979E+02  0.45045681911E+02  0.00000000000E+00 0.  1.
         11    1    3    3    0    0 -0.19907437677E+02  0.80029309916E+01 -0.21204427816E+02  0.30165887001E+02  0.51100000000E-03 0. -1.
        -11    1    3    3    0    0 -0.51889584267E+01  0.39704190341E+01 -0.25986071203E+01  0.70315201833E+01  0.51100000000E-03 0.  1.
        -12    1    3    3    0    0 -0.49994002996E+01  0.22748876136E+00 -0.74138840429E+01  0.89449109047E+01  0.00000000000E+00 0.  1.
</event>
<event>
 7    1  0.4119299E-008  0.4614232E+02  0.7816164E-02  0.1320468E+00
        -11   -1    0    0    0    0  0.00000000000E+00  0.00000000000E+00  0.45593999997E+02  0.45594000000E+02  0.51100000000E-03 0. -1.
         11   -1    0    0    0    0 -0.00000000000E+00 -0.00000000000E+00 -0.45593999997E+02  0.45594000000E+02  0.51100000000E-03 0.  1.
    9900012    2    1    2    0    0  0.39260920773E+02  0.21397297132E+02  0.54634485225E+01  0.46142317696E+02  0.99999994044E+01 0.  0.
        -12    1    1    2    0    0 -0.39260920773E+02 -0.21397297132E+02 -0.54634485225E+01  0.45045682304E+02  0.00000000000E+00 0.  1.
         11    1    3    3    0    0  0.32172355161E+02  0.18439775832E+02  0.73799699577E+01  0.37809386746E+02  0.51100000000E-03 0. -1.
        -11    1    3    3    0    0  0.49357138792E+01  0.11232056980E+01 -0.28988382383E+00  0.50701967841E+01  0.51100000000E-03 0.  1.
        -12    1    3    3    0    0  0.21528517329E+01  0.18343156029E+01 -0.16266376114E+01  0.32627341654E+01  0.00000000000E+00 0.  1.
</event>
<event>
 7    1  0.4119299E-008  0.4614232E+02  0.7816164E-02  0.1320468E+00
        -11   -1    0    0    0    0  0.00000000000E+00  0.00000000000E+00  0.45593999997E+02  0.45594000000E+02  0.51100000000E-03 0.  1.
         11   -1    0    0    0    0 -0.00000000000E+00 -0.00000000000E+00 -0.45593999997E+02  0.45594000000E+02  0.51100000000E-03 0. -1.
    9900012    2    1    2    0    0  0.16804628095E+02 -0.26612788143E+02 -0.32225417499E+02  0.46142317064E+02  0.99999936427E+01 0.  0.
        -12    1    1    2    0    0 -0.16804628095E+02  0.26612788143E+02  0.32225417499E+02  0.45045682936E+02  0.00000000000E+00 0.  1.
         11    1    3    3    0    0  0.10965330712E+02 -0.21081094469E+02 -0.26736181091E+02  0.35769741419E+02  0.51100000000E-03 0. -1.
        -11    1    3    3    0    0  0.37874662625E+01 -0.54831063676E+01 -0.47799945452E+01  0.82010794559E+01  0.51100000000E-03 0.  1.
         12    1    3    3    0    0  0.20518311212E+01 -0.48587305995E-01 -0.70924186364E+00  0.21714961887E+01  0.00000000000E+00 0. -1.
</event>
<event>
 7    1  0.4119299E-008  0.4614232E+02  0.7816164E-02  0.1320468E+00
        -11   -1    0    0    0    0  0.00000000000E+00  0.00000000000E+00  0.45593999997E+02  0.45594000000E+02  0.51100000000E-03 0.  1.
         11   -1    0    0    0    0 -0.00000000000E+00 -0.00000000000E+00 -0.45593999997E+02  0.45594000000E+02  0.51100000000E-03 0. -1.
    9900012    2    1    2    0    0  0.74637230705E+01  0.37861335432E+02 -0.23236299754E+02  0.46142317532E+02  0.99999979118E+01 0.  0.
        -12    1    1    2    0    0 -0.74637230705E+01 -0.37861335432E+02  0.23236299754E+02  0.45045682468E+02  0.00000000000E+00 0.  1.
         11    1    3    3    0    0  0.22884402584E+01  0.81419390078E+01 -0.92185735700E+01  0.12510404812E+02  0.51100000000E-03 0. -1.
        -11    1    3    3    0    0  0.30499481690E-01  0.13469593210E+00  0.32545031693E+00  0.35354120328E+00  0.51100000000E-03 0.  1.
         12    1    3    3    0    0  0.51447833304E+01  0.29584700492E+02 -0.14343176501E+02  0.33278371517E+02  0.00000000000E+00 0. -1.
</event>
<event>
 7    1  0.4119299E-008  0.4614232E+02  0.7816164E-02  0.1320468E+00
        -11   -1    0    0    0    0  0.00000000000E+00  0.00000000000E+00  0.45593999997E+02  0.45594000000E+02  0.51100000000E-03 0.  1.
         11   -1    0    0    0    0 -0.00000000000E+00 -0.00000000000E+00 -0.45593999997E+02  0.45594000000E+02  0.51100000000E-03 0. -1.
    9900012    2    1    2    0    0  0.29738439148E+02  0.27557815286E+02 -0.19629201242E+02  0.46142317769E+02  0.10000000069E+02 0.  0.
        -12    1    1    2    0    0 -0.29738439148E+02 -0.27557815286E+02  0.19629201242E+02  0.45045682231E+02  0.00000000000E+00 0.  1.
         11    1    3    3    0    0  0.16467084166E+02  0.18332914767E+02 -0.13036005965E+02  0.27878272482E+02  0.51100000000E-03 0. -1.
        -11    1    3    3    0    0  0.11310662179E+02  0.95390285873E+01 -0.47107676669E+01  0.15527893534E+02  0.51100000000E-03 0.  1.
        -12    1    3    3    0    0  0.19606928026E+01 -0.31412806826E+00 -0.18824276101E+01  0.27361517532E+01  0.00000000000E+00 0.  1.
</event>
<event>
 7    1  0.4119299E-008  0.4614231E+02  0.7816164E-02  0.1320468E+00
        -11   -1    0    0    0    0  0.00000000000E+00  0.00000000000E+00  0.45593999997E+02  0.45594000000E+02  0.51100000000E-03 0. -1.
         11   -1    0    0    0    0 -0.00000000000E+00 -0.00000000000E+00 -0.45593999997E+02  0.45594000000E+02  0.51100000000E-03 0.  1.
    9900012    2    1    2    0    0 -0.78655366824E+01 -0.44077819009E+02 -0.49389299163E+01  0.46142314029E+02  0.99999659645E+01 0.  0.
        -12    1    1    2    0    0  0.78655366824E+01  0.44077819009E+02  0.49389299163E+01  0.45045685971E+02  0.00000000000E+00 0.  1.
         11    1    3    3    0    0 -0.41614967865E+01 -0.62451417215E+01 -0.75154322780E+00  0.75421925267E+01  0.51100000000E-03 0. -1.
        -11    1    3    3    0    0 -0.10036626613E+01 -0.15607790120E+02  0.80937862933E+00  0.15660956076E+02  0.51100000000E-03 0.  1.
         12    1    3    3    0    0 -0.27003772345E+01 -0.22224887167E+02 -0.49967653178E+01  0.22939165426E+02  0.00000000000E+00 0. -1.
</event>
<event>
 7    1  0.4119299E-008  0.4614231E+02  0.7816164E-02  0.1320468E+00
        -11   -1    0    0    0    0  0.00000000000E+00  0.00000000000E+00  0.45593999997E+02  0.45594000000E+02  0.51100000000E-03 0.  1.
         11   -1    0    0    0    0 -0.00000000000E+00 -0.00000000000E+00 -0.45593999997E+02  0.45594000000E+02  0.51100000000E-03 0. -1.
    9900012    2    1    2    0    0 -0.21723085467E+02 -0.22567572962E+02 -0.32371686266E+02  0.46142313599E+02  0.99999620440E+01 0.  0.
        -12    1    1    2    0    0  0.21723085467E+02  0.22567572962E+02  0.32371686266E+02  0.45045686401E+02  0.00000000000E+00 0.  1.
         11    1    3    3    0    0 -0.60870073184E+01 -0.43096643197E+01 -0.45916931851E+01  0.87583395236E+01  0.51100000000E-03 0. -1.
        -11    1    3    3    0    0 -0.92836047235E+01 -0.82100238963E+01 -0.18662127093E+02  0.22402339095E+02  0.51100000000E-03 0.  1.
         12    1    3    3    0    0 -0.63524734255E+01 -0.10047884746E+02 -0.91178659888E+01  0.14981634980E+02  0.00000000000E+00 0. -1.
</event>
<event>
 7    1  0.4119299E-008  0.4614232E+02  0.7816164E-02  0.1320468E+00
        -11   -1    0    0    0    0  0.00000000000E+00  0.00000000000E+00  0.45593999997E+02  0.45594000000E+02  0.51100000000E-03 0. -1.
         11   -1    0    0    0    0 -0.00000000000E+00 -0.00000000000E+00 -0.45593999997E+02  0.45594000000E+02  0.51100000000E-03 0.  1.
    9900012    2    1    2    0    0  0.33494295172E+02 -0.28999880046E+02  0.81395666915E+01  0.46142318767E+02  0.10000009174E+02 0.  0.
        -12    1    1    2    0    0 -0.33494295172E+02  0.28999880046E+02 -0.81395666915E+01  0.45045681233E+02  0.00000000000E+00 0.  1.
         11    1    3    3    0    0  0.12207352453E+02 -0.77958150197E+01  0.34955435157E+01  0.14900101022E+02  0.51100000000E-03 0. -1.
        -11    1    3    3    0    0 -0.16227807538E+00  0.12448012588E+00 -0.51748729281E+00  0.55643762888E+00  0.51100000000E-03 0.  1.
         12    1    3    3    0    0  0.21449220795E+02 -0.21328545153E+02  0.51615104686E+01  0.30685780116E+02  0.00000000000E+00 0. -1.
</event>
<event>
 7    1  0.4119299E-008  0.4614232E+02  0.7816164E-02  0.1320468E+00
        -11   -1    0    0    0    0  0.00000000000E+00  0.00000000000E+00  0.45593999997E+02  0.45594000000E+02  0.51100000000E-03 0. -1.
         11   -1    0    0    0    0 -0.00000000000E+00 -0.00000000000E+00 -0.45593999997E+02  0.45594000000E+02  0.51100000000E-03 0.  1.
    9900012    2    1    2    0    0  0.13877361177E+02 -0.30590038869E+02  0.30013024334E+02  0.46142320286E+02  0.10000023026E+02 0.  0.
        -12    1    1    2    0    0 -0.13877361177E+02  0.30590038869E+02 -0.30013024334E+02  0.45045679714E+02  0.00000000000E+00 0.  1.
         11    1    3    3    0    0  0.37257590823E+00 -0.36458623053E+01  0.46187872497E+01  0.58961276000E+01  0.51100000000E-03 0. -1.
        -11    1    3    3    0    0  0.51084021444E+01 -0.17635767976E+02  0.17893551132E+02  0.25637770124E+02  0.51100000000E-03 0.  1.
        -12    1    3    3    0    0  0.83963831240E+01 -0.93084085875E+01  0.75006859518E+01  0.14608422562E+02  0.00000000000E+00 0.  1.
</event>
<event>
 7    1  0.4119299E-008  0.4614232E+02  0.7816164E-02  0.1320468E+00
        -11   -1    0    0    0    0  0.00000000000E+00  0.00000000000E+00  0.45593999997E+02  0.45594000000E+02  0.51100000000E-03 0.  1.
         11   -1    0    0    0    0 -0.00000000000E+00 -0.00000000000E+00 -0.45593999997E+02  0.45594000000E+02  0.51100000000E-03 0. -1.
    9900012    2    1    2    0    0  0.20777518994E+02 -0.15624029021E+02 -0.36787198393E+02  0.46142317144E+02  0.99999943694E+01 0.  0.
        -12    1    1    2    0    0 -0.20777518994E+02  0.15624029021E+02  0.36787198393E+02  0.45045682856E+02  0.00000000000E+00 0.  1.
         11    1    3    3    0    0  0.63619329934E+01  0.39767771664E-02 -0.74405208186E+01  0.97895637053E+01  0.51100000000E-03 0. -1.
        -11    1    3    3    0    0  0.47375698183E+01 -0.66085137659E+01 -0.95516228126E+01  0.12543943582E+02  0.51100000000E-03 0.  1.
         12    1    3    3    0    0  0.96780161820E+01 -0.90194920322E+01 -0.19795054762E+02  0.23808809856E+02  0.00000000000E+00 0. -1.
</event>
<event>
 7    1  0.4119299E-008  0.4614232E+02  0.7816164E-02  0.1320468E+00
        -11   -1    0    0    0    0  0.00000000000E+00  0.00000000000E+00  0.45593999997E+02  0.45594000000E+02  0.51100000000E-03 0.  1.
         11   -1    0    0    0    0 -0.00000000000E+00 -0.00000000000E+00 -0.45593999997E+02  0.45594000000E+02  0.51100000000E-03 0. -1.
    9900012    2    1    2    0    0  0.10645452259E+02  0.12579797753E+02 -0.41922982656E+02  0.46142318297E+02  0.10000004886E+02 0.  0.
        -12    1    1    2    0    0 -0.10645452259E+02 -0.12579797753E+02  0.41922982656E+02  0.45045681703E+02  0.00000000000E+00 0.  1.
         11    1    3    3    0    0  0.26883364369E+01  0.78694126717E+00 -0.53592961360E+01  0.60471881640E+01  0.51100000000E-03 0. -1.
        -11    1    3    3    0    0  0.60488168990E+01  0.58936546677E+01 -0.11451465991E+02  0.14228823733E+02  0.51100000000E-03 0.  1.
         12    1    3    3    0    0  0.19082989229E+01  0.58992018179E+01 -0.25112220529E+02  0.25866306400E+02  0.00000000000E+00 0. -1.
</event>
<event>
 7    1  0.4119299E-008  0.4614232E+02  0.7816164E-02  0.1320468E+00
        -11   -1    0    0    0    0  0.00000000000E+00  0.00000000000E+00  0.45593999997E+02  0.45594000000E+02  0.51100000000E-03 0. -1.
         11   -1    0    0    0    0 -0.00000000000E+00 -0.00000000000E+00 -0.45593999997E+02  0.45594000000E+02  0.51100000000E-03 0.  1.
    9900012    2    1    2    0    0  0.29562878251E+02 -0.23507645769E+02 -0.24546697208E+02  0.46142317367E+02  0.99999964086E+01 0.  0.
        -12    1    1    2    0    0 -0.29562878251E+02  0.23507645769E+02  0.24546697208E+02  0.45045682633E+02  0.00000000000E+00 0.  1.
         11    1    3    3    0    0  0.12745012602E+02 -0.98167000627E+01 -0.88244779337E+01  0.18348688166E+02  0.51100000000E-03 0. -1.
        -11    1    3    3    0    0  0.67949103399E+01 -0.38241945743E+01 -0.17968389376E+01  0.80014936792E+01  0.51100000000E-03 0.  1.
         12    1    3    3    0    0  0.10022955309E+02 -0.98667511318E+01 -0.13925380336E+02  0.19792135522E+02  0.00000000000E+00 0. -1.
</event>
<event>
 7    1  0.4119299E-008  0.4614232E+02  0.7816164E-02  0.1320468E+00
        -11   -1    0    0    0    0  0.00000000000E+00  0.00000000000E+00  0.45593999997E+02  0.45594000000E+02  0.51100000000E-03 0. -1.
         11   -1    0    0    0    0 -0.00000000000E+00 -0.00000000000E+00 -0.45593999997E+02  0.45594000000E+02  0.51100000000E-03 0.  1.
    9900012    2    1    2    0    0  0.15269081665E+02 -0.32316747002E+02  0.27415262503E+02  0.46142316413E+02  0.99999877090E+01 0.  0.
        -12    1    1    2    0    0 -0.15269081665E+02  0.32316747002E+02 -0.27415262503E+02  0.45045683587E+02  0.00000000000E+00 0.  1.
         11    1    3    3    0    0  0.89448137145E+01 -0.20983992141E+02  0.15951680784E+02  0.27835117004E+02  0.51100000000E-03 0. -1.
        -11    1    3    3    0    0  0.25074331087E+01 -0.69628341661E+01  0.28684606108E+01  0.79370238097E+01  0.51100000000E-03 0.  1.
        -12    1    3    3    0    0  0.38168348418E+01 -0.43699206954E+01  0.85951211083E+01  0.10370175599E+02  0.00000000000E+00 0.  1.
</event>
<event>
 7    1  0.4119299E-008  0.4614232E+02  0.7816164E-02  0.1320468E+00
        -11   -1    0    0    0    0  0.00000000000E+00  0.00000000000E+00  0.45593999997E+02  0.45594000000E+02  0.51100000000E-03 0. -1.
         11   -1    0    0    0    0 -0.00000000000E+00 -0.00000000000E+00 -0.45593999997E+02  0.45594000000E+02  0.51100000000E-03 0.  1.
    9900012    2    1    2    0    0 -0.12161625575E+02 -0.39083013483E+02  0.18807617013E+02  0.46142317219E+02  0.99999950521E+01 0.  0.
        -12    1    1    2    0    0  0.12161625575E+02  0.39083013483E+02 -0.18807617013E+02  0.45045682781E+02  0.00000000000E+00 0.  1.
         11    1    3    3    0    0 -0.11779350947E+01 -0.99818909610E+01  0.48507826613E+01  0.11160455678E+02  0.51100000000E-03 0. -1.
        -11    1    3    3    0    0 -0.84603575279E+01 -0.25237530905E+02  0.87378932756E+01  0.28015377828E+02  0.51100000000E-03 0.  1.
        -12    1    3    3    0    0 -0.25233329520E+01 -0.38635916176E+01  0.52189410758E+01  0.69664837132E+01  0.00000000000E+00 0.  1.
</event>
<event>
 7    1  0.4119299E-008  0.4614233E+02  0.7816164E-02  0.1320468E+00
        -11   -1    0    0    0    0  0.00000000000E+00  0.00000000000E+00  0.45593999997E+02  0.45594000000E+02  0.51100000000E-03 0.  1.
         11   -1    0    0    0    0 -0.00000000000E+00 -0.00000000000E+00 -0.45593999997E+02  0.45594000000E+02  0.51100000000E-03 0. -1.
    9900012    2    1    2    0    0 -0.26976650831E+02  0.32768702559E+02 -0.15085916538E+02  0.46142329451E+02  0.10000106593E+02 0.  0.
        -12    1    1    2    0    0  0.26976650831E+02 -0.32768702559E+02  0.15085916538E+02  0.45045670549E+02  0.00000000000E+00 0.  1.
         11    1    3    3    0    0 -0.10058242278E+02  0.13268601043E+02 -0.69984530513E+01  0.18061072967E+02  0.51100000000E-03 0. -1.
        -11    1    3    3    0    0 -0.61071015542E+01  0.70244774251E+01  0.78247231014E+00  0.93408905178E+01  0.51100000000E-03 0.  1.
        -12    1    3    3    0    0 -0.10811306999E+02  0.12475624091E+02 -0.88699357965E+01  0.18740365966E+02  0.00000000000E+00 0.  1.
</event>
<event>
 7    1  0.4119299E-008  0.4614231E+02  0.7816164E-02  0.1320468E+00
        -11   -1    0    0    0    0  0.00000000000E+00  0.00000000000E+00  0.45593999997E+02  0.45594000000E+02  0.51100000000E-03 0.  1.
         11   -1    0    0    0    0 -0.00000000000E+00 -0.00000000000E+00 -0.45593999997E+02  0.45594000000E+02  0.51100000000E-03 0. -1.
    9900012    2    1    2    0    0 -0.33555057041E+02 -0.19271372786E+02 -0.23060504680E+02  0.46142306108E+02  0.99998937410E+01 0.  0.
        -12    1    1    2    0    0  0.33555057041E+02  0.19271372786E+02  0.23060504680E+02  0.45045693892E+02  0.00000000000E+00 0.  1.
         11    1    3    3    0    0 -0.29791680826E+02 -0.15608262998E+02 -0.18219821805E+02  0.38250804268E+02  0.51100000000E-03 0. -1.
        -11    1    3    3    0    0 -0.95539395773E+00 -0.24166502208E+01 -0.62084388150E+00  0.26717827926E+01  0.51100000000E-03 0.  1.
         12    1    3    3    0    0 -0.28079822569E+01 -0.12464595667E+01 -0.42198389937E+01  0.52197190479E+01  0.00000000000E+00 0. -1.
</event>
<event>
 7    1  0.4119299E-008  0.4614232E+02  0.7816164E-02  0.1320468E+00
        -11   -1    0    0    0    0  0.00000000000E+00  0.00000000000E+00  0.45593999997E+02  0.45594000000E+02  0.51100000000E-03 0.  1.
         11   -1    0    0    0    0 -0.00000000000E+00 -0.00000000000E+00 -0.45593999997E+02  0.45594000000E+02  0.51100000000E-03 0. -1.
    9900012    2    1    2    0    0  0.76112417573E+01  0.53792250118E+01 -0.44070924511E+02  0.46142318186E+02  0.10000003873E+02 0.  0.
        -12    1    1    2    0    0 -0.76112417573E+01 -0.53792250118E+01  0.44070924511E+02  0.45045681814E+02  0.00000000000E+00 0.  1.
         11    1    3    3    0    0  0.19683660391E+01  0.32740175869E+01 -0.33387192477E+02  0.33605033518E+02  0.51100000000E-03 0. -1.
        -11    1    3    3    0    0  0.44107565990E+01  0.13412134880E+01 -0.98235817280E+01  0.10851561437E+02  0.51100000000E-03 0.  1.
         12    1    3    3    0    0  0.12321191193E+01  0.76399393694E+00 -0.86015030645E+00  0.16857232304E+01  0.00000000000E+00 0. -1.
</event>
<event>
 7    1  0.4119299E-008  0.4614232E+02  0.7816164E-02  0.1320468E+00
        -11   -1    0    0    0    0  0.00000000000E+00  0.00000000000E+00  0.45593999997E+02  0.45594000000E+02  0.51100000000E-03 0. -1.
         11   -1    0    0    0    0 -0.00000000000E+00 -0.00000000000E+00 -0.45593999997E+02  0.45594000000E+02  0.51100000000E-03 0.  1.
    9900012    2    1    2    0    0  0.15543142927E+02  0.26561377225E+02  0.32894033991E+02  0.46142317362E+02  0.99999963627E+01 0.  0.
        -12    1    1    2    0    0 -0.15543142927E+02 -0.26561377225E+02 -0.32894033991E+02  0.45045682638E+02  0.00000000000E+00 0.  1.
         11    1    3    3    0    0  0.10556875251E+02  0.20151744124E+02  0.21020151696E+02  0.30973975913E+02  0.51100000000E-03 0.  1.
        -11    1    3    3    0    0  0.49142489012E+01  0.61782786660E+01  0.12336466558E+02  0.14646138635E+02  0.51100000000E-03 0. -1.
        -12    1    3    3    0    0  0.72018774456E-01  0.23135443505E+00 -0.46258426271E+00  0.52220281366E+00  0.00000000000E+00 0.  1.
</event>
<event>
 7    1  0.4119299E-008  0.4614232E+02  0.7816164E-02  0.1320468E+00
        -11   -1    0    0    0    0  0.00000000000E+00  0.00000000000E+00  0.45593999997E+02  0.45594000000E+02  0.51100000000E-03 0. -1.
         11   -1    0    0    0    0 -0.00000000000E+00 -0.00000000000E+00 -0.45593999997E+02  0.45594000000E+02  0.51100000000E-03 0.  1.
    9900012    2    1    2    0    0 -0.28152421690E+02 -0.71214569500E+01  0.34436019893E+02  0.46142318052E+02  0.10000002652E+02 0.  0.
        -12    1    1    2    0    0  0.28152421690E+02  0.71214569500E+01 -0.34436019893E+02  0.45045681948E+02  0.00000000000E+00 0.  1.
         11    1    3    3    0    0 -0.25961950782E+02 -0.59109758181E+01  0.31105233143E+02  0.40945061395E+02  0.51100000000E-03 0. -1.
        -11    1    3    3    0    0 -0.23598723559E+01 -0.85350442725E+00  0.38186722726E+01  0.45694338304E+01  0.51100000000E-03 0.  1.
        -12    1    3    3    0    0  0.16940144721E+00 -0.35697670466E+00 -0.48788552296E+00  0.62782282652E+00  0.00000000000E+00 0.  1.
</event>
<event>
 7    1  0.4119299E-008  0.4614232E+02  0.7816164E-02  0.1320468E+00
        -11   -1    0    0    0    0  0.00000000000E+00  0.00000000000E+00  0.45593999997E+02  0.45594000000E+02  0.51100000000E-03 0.  1.
         11   -1    0    0    0    0 -0.00000000000E+00 -0.00000000000E+00 -0.45593999997E+02  0.45594000000E+02  0.51100000000E-03 0. -1.
    9900012    2    1    2    0    0  0.46776697355E+01 -0.15044104568E+02 -0.42200803586E+02  0.46142317635E+02  0.99999988494E+01 0.  0.
        -12    1    1    2    0    0 -0.46776697355E+01  0.15044104568E+02  0.42200803586E+02  0.45045682365E+02  0.00000000000E+00 0.  1.
         11    1    3    3    0    0  0.84399479637E+00 -0.89697229826E+01 -0.25474637203E+02  0.27020832675E+02  0.51100000000E-03 0. -1.
        -11    1    3    3    0    0  0.41752872188E+01 -0.50402504800E+01 -0.80394817766E+01  0.10366793900E+02  0.51100000000E-03 0.  1.
        -12    1    3    3    0    0 -0.34161227971E+00 -0.10341311054E+01 -0.86866846070E+01  0.87546910599E+01  0.00000000000E+00 0.  1.
</event>
<event>
 7    1  0.4119299E-008  0.4614232E+02  0.7816164E-02  0.1320468E+00
        -11   -1    0    0    0    0  0.00000000000E+00  0.00000000000E+00  0.45593999997E+02  0.45594000000E+02  0.51100000000E-03 0.  1.
         11   -1    0    0    0    0 -0.00000000000E+00 -0.00000000000E+00 -0.45593999997E+02  0.45594000000E+02  0.51100000000E-03 0. -1.
    9900012    2    1    2    0    0 -0.10147826117E+02  0.39716098376E+02 -0.18675295347E+02  0.46142317616E+02  0.99999986778E+01 0.  0.
        -12    1    1    2    0    0  0.10147826117E+02 -0.39716098376E+02  0.18675295347E+02  0.45045682384E+02  0.00000000000E+00 0.  1.
         11    1    3    3    0    0 -0.51425266801E+01  0.17779226342E+02 -0.11486558618E+02  0.21782733968E+02  0.51100000000E-03 0. -1.
        -11    1    3    3    0    0 -0.31104083439E+01  0.33660242505E+01 -0.97834977022E+00  0.46863554981E+01  0.51100000000E-03 0.  1.
         12    1    3    3    0    0 -0.18948910931E+01  0.18570847784E+02 -0.62103869587E+01  0.19673228150E+02  0.00000000000E+00 0. -1.
</event>
<event>
 7    1  0.4119299E-008  0.4614231E+02  0.7816164E-02  0.1320468E+00
        -11   -1    0    0    0    0  0.00000000000E+00  0.00000000000E+00  0.45593999997E+02  0.45594000000E+02  0.51100000000E-03 0.  1.
         11   -1    0    0    0    0 -0.00000000000E+00 -0.00000000000E+00 -0.45593999997E+02  0.45594000000E+02  0.51100000000E-03 0. -1.
    9900012    2    1    2    0    0 -0.41560771457E+02  0.14395096458E+02 -0.97261122053E+01  0.46142314471E+02  0.99999699979E+01 0.  0.
        -12    1    1    2    0    0  0.41560771457E+02 -0.14395096458E+02  0.97261122053E+01  0.45045685529E+02  0.00000000000E+00 0.  1.
         11    1    3    3    0    0 -0.16782940116E+01 -0.62026772688E+00 -0.11563402629E+00  0.17929791777E+01  0.51100000000E-03 0.  1.
        -11    1    3    3    0    0 -0.14209235160E+02  0.17882495580E+01 -0.18182480699E+01  0.14436281606E+02  0.51100000000E-03 0. -1.
         12    1    3    3    0    0 -0.25673242286E+02  0.13227114627E+02 -0.77922301091E+01  0.29913053687E+02  0.00000000000E+00 0. -1.
</event>
<event>
 7    1  0.4119299E-008  0.4614232E+02  0.7816164E-02  0.1320468E+00
        -11   -1    0    0    0    0  0.00000000000E+00  0.00000000000E+00  0.45593999997E+02  0.45594000000E+02  0.51100000000E-03 0.  1.
         11   -1    0    0    0    0 -0.00000000000E+00 -0.00000000000E+00 -0.45593999997E+02  0.45594000000E+02  0.51100000000E-03 0. -1.
    9900012    2    1    2    0    0 -0.33764022268E+02 -0.21303378512E+02 -0.20863135630E+02  0.46142316921E+02  0.99999923383E+01 0.  0.
        -12    1    1    2    0    0  0.33764022268E+02  0.21303378512E+02  0.20863135630E+02  0.45045683079E+02  0.00000000000E+00 0.  1.
         11    1    3    3    0    0 -0.16665046138E+02 -0.14385369313E+02 -0.12161341943E+02  0.25150762437E+02  0.51100000000E-03 0. -1.
        -11    1    3    3    0    0 -0.14151868000E+02 -0.76206652946E+01 -0.73155175397E+01  0.17659748145E+02  0.51100000000E-03 0.  1.
         12    1    3    3    0    0 -0.29471081304E+01  0.70265609580E+00 -0.13862761470E+01  0.33318063385E+01  0.00000000000E+00 0. -1.
</event>
<event>
 7    1  0.4119299E-008  0.4614232E+02  0.7816164E-02  0.1320468E+00
        -11   -1    0    0    0    0  0.00000000000E+00  0.00000000000E+00  0.45593999997E+02  0.45594000000E+02  0.51100000000E-03 0.  1.
         11   -1    0    0    0    0 -0.00000000000E+00 -0.00000000000E+00 -0.45593999997E+02  0.45594000000E+02  0.51100000000E-03 0. -1.
    9900012    2    1    2    0    0  0.17481204543E+02 -0.19968487598E+01 -0.41467259976E+02  0.46142316886E+02  0.99999920237E+01 0.  0.
        -12    1    1    2    0    0 -0.17481204543E+02  0.19968487598E+01  0.41467259976E+02  0.45045683114E+02  0.00000000000E+00 0.  1.
         11    1    3    3    0    0  0.75355410429E+01 -0.43526193976E+01 -0.14080765314E+02  0.16552873664E+02  0.51100000000E-03 0. -1.
        -11    1    3    3    0    0  0.38337873155E+01  0.33131893402E+00 -0.50834428793E+01  0.63756638231E+01  0.51100000000E-03 0.  1.
        -12    1    3    3    0    0  0.61118761842E+01  0.20244517038E+01 -0.22303051783E+02  0.23213779400E+02  0.00000000000E+00 0.  1.
</event>
<event>
 7    1  0.4119299E-008  0.4614232E+02  0.7816164E-02  0.1320468E+00
        -11   -1    0    0    0    0  0.00000000000E+00  0.00000000000E+00  0.45593999997E+02  0.45594000000E+02  0.51100000000E-03 0. -1.
         11   -1    0    0    0    0 -0.00000000000E+00 -0.00000000000E+00 -0.45593999997E+02  0.45594000000E+02  0.51100000000E-03 0.  1.
    9900012    2    1    2    0    0 -0.14295294230E+02 -0.69308915359E+01  0.42151161059E+02  0.46142322369E+02  0.10000042021E+02 0.  0.
        -12    1    1    2    0    0  0.14295294230E+02  0.69308915359E+01 -0.42151161059E+02  0.45045677631E+02  0.00000000000E+00 0.  1.
         11    1    3    3    0    0 -0.78424502359E+00 -0.40599975410E+01  0.14291123102E+02  0.14877325703E+02  0.51100000000E-03 0. -1.
        -11    1    3    3    0    0 -0.50752428735E+00  0.45673873200E+00  0.22407506583E+01  0.23424677042E+01  0.51100000000E-03 0.  1.
         12    1    3    3    0    0 -0.13003524919E+02 -0.33276327269E+01  0.25619287298E+02  0.28922528962E+02  0.00000000000E+00 0. -1.
</event>
<event>
 7    1  0.4119299E-008  0.4614232E+02  0.7816164E-02  0.1320468E+00
        -11   -1    0    0    0    0  0.00000000000E+00  0.00000000000E+00  0.45593999997E+02  0.45594000000E+02  0.51100000000E-03 0.  1.
         11   -1    0    0    0    0 -0.00000000000E+00 -0.00000000000E+00 -0.45593999997E+02  0.45594000000E+02  0.51100000000E-03 0. -1.
    9900012    2    1    2    0    0  0.19400429415E+02 -0.27662538455E+02 -0.29791285793E+02  0.46142318692E+02  0.10000008490E+02 0.  0.
        -12    1    1    2    0    0 -0.19400429415E+02  0.27662538455E+02  0.29791285793E+02  0.45045681308E+02  0.00000000000E+00 0.  1.
         11    1    3    3    0    0  0.26627579134E+01 -0.14226040100E+01 -0.19137586482E+01  0.35744306259E+01  0.51100000000E-03 0. -1.
        -11    1    3    3    0    0  0.33278296049E+01 -0.12090899291E+02 -0.90381280047E+01  0.15458074060E+02  0.51100000000E-03 0.  1.
         12    1    3    3    0    0  0.13409841897E+02 -0.14149035154E+02 -0.18839399140E+02  0.27109814006E+02  0.00000000000E+00 0. -1.
</event>
<event>
 7    1  0.4119299E-008  0.4614232E+02  0.7816164E-02  0.1320468E+00
        -11   -1    0    0    0    0  0.00000000000E+00  0.00000000000E+00  0.45593999997E+02  0.45594000000E+02  0.51100000000E-03 0. -1.
         11   -1    0    0    0    0 -0.00000000000E+00 -0.00000000000E+00 -0.45593999997E+02  0.45594000000E+02  0.51100000000E-03 0.  1.
    9900012    2    1    2    0    0 -0.14763137180E+02  0.42478515732E+02  0.25959611588E+01  0.46142317271E+02  0.99999955304E+01 0.  0.
        -12    1    1    2    0    0  0.14763137180E+02 -0.42478515732E+02 -0.25959611588E+01  0.45045682729E+02  0.00000000000E+00 0.  1.
         11    1    3    3    0    0  0.40224015669E+00  0.48692064221E+01 -0.28548931293E+00  0.48941263504E+01  0.51100000000E-03 0. -1.
        -11    1    3    3    0    0 -0.44244985356E+01  0.77481637886E+01  0.32948525001E+01  0.95113764853E+01  0.51100000000E-03 0.  1.
        -12    1    3    3    0    0 -0.10740878801E+02  0.29861145521E+02 -0.41340202832E+00  0.31736814435E+02  0.00000000000E+00 0.  1.
</event>
<event>
 7    1  0.4119299E-008  0.4614232E+02  0.7816164E-02  0.1320468E+00
        -11   -1    0    0    0    0  0.00000000000E+00  0.00000000000E+00  0.45593999997E+02  0.45594000000E+02  0.51100000000E-03 0.  1.
         11   -1    0    0    0    0 -0.00000000000E+00 -0.00000000000E+00 -0.45593999997E+02  0.45594000000E+02  0.51100000000E-03 0. -1.
    9900012    2    1    2    0    0  0.24485890145E+02 -0.37514526983E+02  0.47132173598E+01  0.46142323528E+02  0.10000052589E+02 0.  0.
        -12    1    1    2    0    0 -0.24485890145E+02  0.37514526983E+02 -0.47132173598E+01  0.45045676472E+02  0.00000000000E+00 0.  1.
         11    1    3    3    0    0  0.14777377567E+02 -0.20757804899E+02  0.47612650445E+01  0.25921554681E+02  0.51100000000E-03 0. -1.
        -11    1    3    3    0    0  0.80676235079E+01 -0.15736722955E+02  0.14962057378E+01  0.17747383759E+02  0.51100000000E-03 0.  1.
        -12    1    3    3    0    0  0.16408890698E+01 -0.10199991292E+01 -0.15442534224E+01  0.24733850884E+01  0.00000000000E+00 0.  1.
</event>
<event>
 7    1  0.4119299E-008  0.4614232E+02  0.7816164E-02  0.1320468E+00
        -11   -1    0    0    0    0  0.00000000000E+00  0.00000000000E+00  0.45593999997E+02  0.45594000000E+02  0.51100000000E-03 0. -1.
         11   -1    0    0    0    0 -0.00000000000E+00 -0.00000000000E+00 -0.45593999997E+02  0.45594000000E+02  0.51100000000E-03 0.  1.
    9900012    2    1    2    0    0  0.37893593707E+00 -0.41507149232E+02 -0.17496472763E+02  0.46142316645E+02  0.99999898186E+01 0.  0.
        -12    1    1    2    0    0 -0.37893593707E+00  0.41507149232E+02  0.17496472763E+02  0.45045683355E+02  0.00000000000E+00 0.  1.
         11    1    3    3    0    0  0.17187894418E+01 -0.11371529250E+02 -0.34355242105E+01  0.12002863887E+02  0.51100000000E-03 0. -1.
        -11    1    3    3    0    0 -0.33117263929E+01 -0.12618009032E+02 -0.31933703576E+01  0.13430536033E+02  0.51100000000E-03 0.  1.
        -12    1    3    3    0    0  0.19718728882E+01 -0.17517610951E+02 -0.10867578195E+02  0.20708916725E+02  0.00000000000E+00 0.  1.
</event>
<event>
 7    1  0.4119299E-008  0.4614232E+02  0.7816164E-02  0.1320468E+00
        -11   -1    0    0    0    0  0.00000000000E+00  0.00000000000E+00  0.45593999997E+02  0.45594000000E+02  0.51100000000E-03 0.  1.
         11   -1    0    0    0    0 -0.00000000000E+00 -0.00000000000E+00 -0.45593999997E+02  0.45594000000E+02  0.51100000000E-03 0. -1.
    9900012    2    1    2    0    0  0.16253400484E+02  0.11164175701E+02 -0.40500637589E+02  0.46142317727E+02  0.99999996854E+01 0.  0.
        -12    1    1    2    0    0 -0.16253400484E+02 -0.11164175701E+02  0.40500637589E+02  0.45045682273E+02  0.00000000000E+00 0.  1.
         11    1    3    3    0    0  0.87930284547E+00  0.52948753827E+00 -0.47964854236E+01  0.49050793294E+01  0.51100000000E-03 0. -1.
        -11    1    3    3    0    0  0.90432218043E+01  0.10582184327E+01 -0.14402694707E+02  0.17039287014E+02  0.51100000000E-03 0.  1.
         12    1    3    3    0    0  0.63308758346E+01  0.95764697296E+01 -0.21301457458E+02  0.24197951384E+02  0.00000000000E+00 0. -1.
</event>
<event>
 7    1  0.4119299E-008  0.4614232E+02  0.7816164E-02  0.1320468E+00
        -11   -1    0    0    0    0  0.00000000000E+00  0.00000000000E+00  0.45593999997E+02  0.45594000000E+02  0.51100000000E-03 0. -1.
         11   -1    0    0    0    0 -0.00000000000E+00 -0.00000000000E+00 -0.45593999997E+02  0.45594000000E+02  0.51100000000E-03 0.  1.
    9900012    2    1    2    0    0  0.31703373516E+02 -0.17416610113E+02  0.26845320223E+02  0.46142318543E+02  0.10000007127E+02 0.  0.
        -12    1    1    2    0    0 -0.31703373516E+02  0.17416610113E+02 -0.26845320223E+02  0.45045681457E+02  0.00000000000E+00 0.  1.
         11    1    3    3    0    0  0.19302186840E+01 -0.35183094002E+01  0.26840744063E+01  0.48278878284E+01  0.51100000000E-03 0. -1.
        -11    1    3    3    0    0  0.26471222378E-01  0.23019451347E+00 -0.23560880921E+00  0.33045727673E+00  0.51100000000E-03 0.  1.
         12    1    3    3    0    0  0.29746683610E+02 -0.14128495226E+02  0.24396854625E+02  0.40983973438E+02  0.00000000000E+00 0. -1.
</event>
<event>
 7    1  0.4119299E-008  0.4614232E+02  0.7816164E-02  0.1320468E+00
        -11   -1    0    0    0    0  0.00000000000E+00  0.00000000000E+00  0.45593999997E+02  0.45594000000E+02  0.51100000000E-03 0.  1.
         11   -1    0    0    0    0 -0.00000000000E+00 -0.00000000000E+00 -0.45593999997E+02  0.45594000000E+02  0.51100000000E-03 0. -1.
    9900012    2    1    2    0    0  0.36461152978E+02  0.63685957564E+01 -0.25673698795E+02  0.46142317652E+02  0.99999990040E+01 0.  0.
        -12    1    1    2    0    0 -0.36461152978E+02 -0.63685957564E+01  0.25673698795E+02  0.45045682348E+02  0.00000000000E+00 0.  1.
         11    1    3    3    0    0  0.11890372527E+02  0.42931638355E+01 -0.10450190479E+02  0.16401789410E+02  0.51100000000E-03 0. -1.
        -11    1    3    3    0    0  0.66080789070E+01  0.14810286162E+01 -0.77069540407E+01  0.10259497719E+02  0.51100000000E-03 0.  1.
         12    1    3    3    0    0  0.17962701544E+02  0.59440330464E+00 -0.75165542758E+01  0.19481030523E+02  0.00000000000E+00 0. -1.
</event>
<event>
 7    1  0.4119299E-008  0.4614232E+02  0.7816164E-02  0.1320468E+00
        -11   -1    0    0    0    0  0.00000000000E+00  0.00000000000E+00  0.45593999997E+02  0.45594000000E+02  0.51100000000E-03 0.  1.
         11   -1    0    0    0    0 -0.00000000000E+00 -0.00000000000E+00 -0.45593999997E+02  0.45594000000E+02  0.51100000000E-03 0. -1.
    9900012    2    1    2    0    0 -0.18983187635E+02 -0.38575650720E+02 -0.13441401492E+02  0.46142317462E+02  0.99999972691E+01 0.  0.
        -12    1    1    2    0    0  0.18983187635E+02  0.38575650720E+02  0.13441401492E+02  0.45045682538E+02  0.00000000000E+00 0.  1.
         11    1    3    3    0    0 -0.11869704081E+02 -0.16940656322E+02 -0.58825615961E+01  0.21505353817E+02  0.51100000000E-03 0.  1.
        -11    1    3    3    0    0 -0.49874209680E+01 -0.12735824762E+02 -0.72543547267E+01  0.15482288689E+02  0.51100000000E-03 0. -1.
        -12    1    3    3    0    0 -0.21260625860E+01 -0.88991696360E+01 -0.30448516919E+00  0.91546749559E+01  0.00000000000E+00 0.  1.
</event>
<event>
 7    1  0.4119299E-008  0.4614232E+02  0.7816164E-02  0.1320468E+00
        -11   -1    0    0    0    0  0.00000000000E+00  0.00000000000E+00  0.45593999997E+02  0.45594000000E+02  0.51100000000E-03 0.  1.
         11   -1    0    0    0    0 -0.00000000000E+00 -0.00000000000E+00 -0.45593999997E+02  0.45594000000E+02  0.51100000000E-03 0. -1.
    9900012    2    1    2    0    0  0.24162664556E+02  0.17727051962E+02 -0.33630802178E+02  0.46142316690E+02  0.99999902369E+01 0.  0.
        -12    1    1    2    0    0 -0.24162664556E+02 -0.17727051962E+02  0.33630802178E+02  0.45045683310E+02  0.00000000000E+00 0.  1.
         11    1    3    3    0    0  0.25737074400E+01  0.59412028249E+01 -0.82955504078E+01  0.10523213284E+02  0.51100000000E-03 0. -1.
        -11    1    3    3    0    0  0.81153322898E+01  0.20057065162E+01 -0.92777716290E+01  0.12488335496E+02  0.51100000000E-03 0.  1.
         12    1    3    3    0    0  0.13473624826E+02  0.97801426208E+01 -0.16057480141E+02  0.23130767910E+02  0.00000000000E+00 0. -1.
</event>
<event>
 7    1  0.4119299E-008  0.4614232E+02  0.7816164E-02  0.1320468E+00
        -11   -1    0    0    0    0  0.00000000000E+00  0.00000000000E+00  0.45593999997E+02  0.45594000000E+02  0.51100000000E-03 0.  1.
         11   -1    0    0    0    0 -0.00000000000E+00 -0.00000000000E+00 -0.45593999997E+02  0.45594000000E+02  0.51100000000E-03 0. -1.
    9900012    2    1    2    0    0  0.62661721737E+01 -0.23206134173E+02 -0.38096246132E+02  0.46142317118E+02  0.99999941371E+01 0.  0.
        -12    1    1    2    0    0 -0.62661721737E+01  0.23206134173E+02  0.38096246132E+02  0.45045682882E+02  0.00000000000E+00 0.  1.
         11    1    3    3    0    0  0.44119457909E+00 -0.14771162636E+01 -0.58119898120E+01  0.60129652376E+01  0.51100000000E-03 0. -1.
        -11    1    3    3    0    0  0.20356309005E+01 -0.59461621639E+00 -0.48370976336E+01  0.52815599386E+01  0.51100000000E-03 0.  1.
        -12    1    3    3    0    0  0.37893466942E+01 -0.21134401693E+02 -0.27447158686E+02  0.34847791942E+02  0.00000000000E+00 0.  1.
</event>
<event>
 7    1  0.4119299E-008  0.4614232E+02  0.7816164E-02  0.1320468E+00
        -11   -1    0    0    0    0  0.00000000000E+00  0.00000000000E+00  0.45593999997E+02  0.45594000000E+02  0.51100000000E-03 0.  1.
         11   -1    0    0    0    0 -0.00000000000E+00 -0.00000000000E+00 -0.45593999997E+02  0.45594000000E+02  0.51100000000E-03 0. -1.
    9900012    2    1    2    0    0  0.64305784336E+01  0.12945475629E+02 -0.42663518010E+02  0.46142318218E+02  0.10000004165E+02 0.  0.
        -12    1    1    2    0    0 -0.64305784336E+01 -0.12945475629E+02  0.42663518010E+02  0.45045681782E+02  0.00000000000E+00 0.  1.
         11    1    3    3    0    0 -0.10698509068E+01  0.36338755435E+01 -0.97300080827E+01  0.10441393105E+02  0.51100000000E-03 0. -1.
        -11    1    3    3    0    0  0.63340913573E+01  0.98354010206E+01 -0.32123560358E+02  0.34187409332E+02  0.51100000000E-03 0.  1.
        -12    1    3    3    0    0  0.11663379831E+01 -0.52380093562E+00 -0.80994956961E+00  0.15135157800E+01  0.00000000000E+00 0.  1.
</event>
<event>
 7    1  0.4119299E-008  0.4614232E+02  0.7816164E-02  0.1320468E+00
        -11   -1    0    0    0    0  0.00000000000E+00  0.00000000000E+00  0.45593999997E+02  0.45594000000E+02  0.51100000000E-03 0. -1.
         11   -1    0    0    0    0 -0.00000000000E+00 -0.00000000000E+00 -0.45593999997E+02  0.45594000000E+02  0.51100000000E-03 0.  1.
    9900012    2    1    2    0    0 -0.12550844138E+02  0.43220350218E+02 -0.18950822891E+01  0.46142315429E+02  0.99999787338E+01 0.  0.
        -12    1    1    2    0    0  0.12550844138E+02 -0.43220350218E+02  0.18950822891E+01  0.45045684571E+02  0.00000000000E+00 0.  1.
         11    1    3    3    0    0 -0.48039953324E+01  0.16980434493E+02 -0.40943629118E+00  0.17651661821E+02  0.51100000000E-03 0. -1.
        -11    1    3    3    0    0 -0.72010194817E+01  0.18403255596E+02  0.20655954815E+01  0.19869604502E+02  0.51100000000E-03 0.  1.
        -12    1    3    3    0    0 -0.54582932424E+00  0.78366601297E+01 -0.35512414794E+01  0.86210491058E+01  0.00000000000E+00 0.  1.
</event>
<event>
 7    1  0.4119299E-008  0.4614232E+02  0.7816164E-02  0.1320468E+00
        -11   -1    0    0    0    0  0.00000000000E+00  0.00000000000E+00  0.45593999997E+02  0.45594000000E+02  0.51100000000E-03 0.  1.
         11   -1    0    0    0    0 -0.00000000000E+00 -0.00000000000E+00 -0.45593999997E+02  0.45594000000E+02  0.51100000000E-03 0. -1.
    9900012    2    1    2    0    0 -0.84547348392E+01  0.19282750590E+02 -0.39822185462E+02  0.46142318004E+02  0.10000002210E+02 0.  0.
        -12    1    1    2    0    0  0.84547348392E+01 -0.19282750590E+02  0.39822185462E+02  0.45045681996E+02  0.00000000000E+00 0.  1.
         11    1    3    3    0    0 -0.56323965258E+00 -0.84007353825E-01 -0.23017675491E+00  0.61422938822E+00  0.51100000000E-03 0. -1.
        -11    1    3    3    0    0  0.14903893745E+01  0.21171906915E+01 -0.71745176868E+01  0.76274151068E+01  0.51100000000E-03 0.  1.
         12    1    3    3    0    0 -0.93818845611E+01  0.17249567253E+02 -0.32417491021E+02  0.37900673508E+02  0.00000000000E+00 0. -1.
</event>
<event>
 7    1  0.4119299E-008  0.4614232E+02  0.7816164E-02  0.1320468E+00
        -11   -1    0    0    0    0  0.00000000000E+00  0.00000000000E+00  0.45593999997E+02  0.45594000000E+02  0.51100000000E-03 0. -1.
         11   -1    0    0    0    0 -0.00000000000E+00 -0.00000000000E+00 -0.45593999997E+02  0.45594000000E+02  0.51100000000E-03 0.  1.
    9900012    2    1    2    0    0 -0.71632010061E+01 -0.41519855878E+02  0.15934355929E+02  0.46142316748E+02  0.99999907616E+01 0.  0.
        -12    1    1    2    0    0  0.71632010061E+01  0.41519855878E+02 -0.15934355929E+02  0.45045683252E+02  0.00000000000E+00 0.  1.
         11    1    3    3    0    0 -0.75106560315E-01 -0.10712505298E+02  0.27225412210E+01  0.11053309084E+02  0.51100000000E-03 0. -1.
        -11    1    3    3    0    0 -0.48917656181E+00 -0.18486488516E+02  0.66937851655E+01  0.19667137856E+02  0.51100000000E-03 0.  1.
        -12    1    3    3    0    0 -0.65989178839E+01 -0.12320862064E+02  0.65180295421E+01  0.15421869808E+02  0.00000000000E+00 0.  1.
</event>
<event>
 7    1  0.4119299E-008  0.4614232E+02  0.7816164E-02  0.1320468E+00
        -11   -1    0    0    0    0  0.00000000000E+00  0.00000000000E+00  0.45593999997E+02  0.45594000000E+02  0.51100000000E-03 0.  1.
         11   -1    0    0    0    0 -0.00000000000E+00 -0.00000000000E+00 -0.45593999997E+02  0.45594000000E+02  0.51100000000E-03 0. -1.
    9900012    2    1    2    0    0 -0.15739063226E+02 -0.39378141634E+02 -0.15190696960E+02  0.46142318476E+02  0.10000006521E+02 0.  0.
        -12    1    1    2    0    0  0.15739063226E+02  0.39378141634E+02  0.15190696960E+02  0.45045681524E+02  0.00000000000E+00 0.  1.
         11    1    3    3    0    0 -0.49684737797E+01 -0.81809186932E+01 -0.43549382203E+01  0.10515638332E+02  0.51100000000E-03 0. -1.
        -11    1    3    3    0    0 -0.12367195184E+00 -0.24708657989E+01 -0.32158088009E+01  0.40573265894E+01  0.51100000000E-03 0.  1.
        -12    1    3    3    0    0 -0.10646917495E+02 -0.28726357142E+02 -0.76199499393E+01  0.31569353555E+02  0.00000000000E+00 0.  1.
</event>
<event>
 7    1  0.4119299E-008  0.4614232E+02  0.7816164E-02  0.1320468E+00
        -11   -1    0    0    0    0  0.00000000000E+00  0.00000000000E+00  0.45593999997E+02  0.45594000000E+02  0.51100000000E-03 0.  1.
         11   -1    0    0    0    0 -0.00000000000E+00 -0.00000000000E+00 -0.45593999997E+02  0.45594000000E+02  0.51100000000E-03 0. -1.
    9900012    2    1    2    0    0 -0.27171523748E+02  0.30267336040E+02 -0.19357432240E+02  0.46142317447E+02  0.99999971388E+01 0.  0.
        -12    1    1    2    0    0  0.27171523748E+02 -0.30267336040E+02  0.19357432240E+02  0.45045682553E+02  0.00000000000E+00 0.  1.
         11    1    3    3    0    0 -0.28986925060E+01  0.60963791104E+01 -0.57377158687E+01  0.88594379140E+01  0.51100000000E-03 0. -1.
        -11    1    3    3    0    0 -0.47477462551E+01  0.20032938848E+01 -0.23849072245E+01  0.56782095437E+01  0.51100000000E-03 0.  1.
         12    1    3    3    0    0 -0.19525084987E+02  0.22167663044E+02 -0.11234809147E+02  0.31604669990E+02  0.00000000000E+00 0. -1.
</event>
<event>
 7    1  0.4119299E-008  0.4614232E+02  0.7816164E-02  0.1320468E+00
        -11   -1    0    0    0    0  0.00000000000E+00  0.00000000000E+00  0.45593999997E+02  0.45594000000E+02  0.51100000000E-03 0.  1.
         11   -1    0    0    0    0 -0.00000000000E+00 -0.00000000000E+00 -0.45593999997E+02  0.45594000000E+02  0.51100000000E-03 0. -1.
    9900012    2    1    2    0    0  0.42006482575E+02 -0.10991827081E+01 -0.16228385527E+02  0.46142320098E+02  0.10000021314E+02 0.  0.
        -12    1    1    2    0    0 -0.42006482575E+02  0.10991827081E+01  0.16228385527E+02  0.45045679902E+02  0.00000000000E+00 0.  1.
         11    1    3    3    0    0 -0.13123518367E+00  0.47966429638E-01  0.48757448263E+00  0.50720073841E+00  0.51100000000E-03 0. -1.
        -11    1    3    3    0    0  0.65262922573E+01 -0.60501757871E+00 -0.72453106978E+00  0.65942006665E+01  0.51100000000E-03 0.  1.
         12    1    3    3    0    0  0.35611425502E+02 -0.54213155900E+00 -0.15991428940E+02  0.39040918693E+02  0.00000000000E+00 0. -1.
</event>
<event>
 7    1  0.4119299E-008  0.4614232E+02  0.7816164E-02  0.1320468E+00
        -11   -1    0    0    0    0  0.00000000000E+00  0.00000000000E+00  0.45593999997E+02  0.45594000000E+02  0.51100000000E-03 0.  1.
         11   -1    0    0    0    0 -0.00000000000E+00 -0.00000000000E+00 -0.45593999997E+02  0.45594000000E+02  0.51100000000E-03 0. -1.
    9900012    2    1    2    0    0  0.32031636719E+01 -0.10558005232E+02 -0.43673581722E+02  0.46142317939E+02  0.10000001618E+02 0.  0.
        -12    1    1    2    0    0 -0.32031636719E+01  0.10558005232E+02  0.43673581722E+02  0.45045682061E+02  0.00000000000E+00 0.  1.
         11    1    3    3    0    0  0.56413319265E+00 -0.33066697349E+00 -0.64388527508E+01  0.64719712542E+01  0.51100000000E-03 0. -1.
        -11    1    3    3    0    0  0.10965009941E+01  0.15646299644E+00 -0.13715937835E+00  0.11160681232E+01  0.51100000000E-03 0.  1.
         12    1    3    3    0    0  0.15425294851E+01 -0.10383801255E+02 -0.37097569592E+02  0.38554278561E+02  0.00000000000E+00 0. -1.
</event>
<event>
 7    1  0.4119299E-008  0.4614232E+02  0.7816164E-02  0.1320468E+00
        -11   -1    0    0    0    0  0.00000000000E+00  0.00000000000E+00  0.45593999997E+02  0.45594000000E+02  0.51100000000E-03 0. -1.
         11   -1    0    0    0    0 -0.00000000000E+00 -0.00000000000E+00 -0.45593999997E+02  0.45594000000E+02  0.51100000000E-03 0.  1.
    9900012    2    1    2    0    0 -0.28137333237E+02  0.19888702465E+02  0.29014537457E+02  0.46142318839E+02  0.10000009829E+02 0.  0.
        -12    1    1    2    0    0  0.28137333237E+02 -0.19888702465E+02 -0.29014537457E+02  0.45045681161E+02  0.00000000000E+00 0.  1.
         11    1    3    3    0    0 -0.43172405747E+01  0.97541640323E+00  0.21569522979E+01  0.49236619315E+01  0.51100000000E-03 0. -1.
        -11    1    3    3    0    0 -0.59732401769E+01  0.22414017257E+01  0.86866418741E+01  0.10777811801E+02  0.51100000000E-03 0.  1.
         12    1    3    3    0    0 -0.17846852485E+02  0.16671884336E+02  0.18170943285E+02  0.30440845107E+02  0.00000000000E+00 0. -1.
</event>
<event>
 7    1  0.4119299E-008  0.4614232E+02  0.7816164E-02  0.1320468E+00
        -11   -1    0    0    0    0  0.00000000000E+00  0.00000000000E+00  0.45593999997E+02  0.45594000000E+02  0.51100000000E-03 0. -1.
         11   -1    0    0    0    0 -0.00000000000E+00 -0.00000000000E+00 -0.45593999997E+02  0.45594000000E+02  0.51100000000E-03 0.  1.
    9900012    2    1    2    0    0 -0.33633265247E+02 -0.71725739492E+01  0.29094177387E+02  0.46142317565E+02  0.99999982152E+01 0.  0.
        -12    1    1    2    0    0  0.33633265247E+02  0.71725739492E+01 -0.29094177387E+02  0.45045682435E+02  0.00000000000E+00 0.  1.
         11    1    3    3    0    0 -0.96066278595E+01 -0.42943613752E+01  0.97676296662E+01  0.14357417177E+02  0.51100000000E-03 0. -1.
        -11    1    3    3    0    0 -0.54883348841E+01 -0.26980767998E+01  0.20678924366E+01  0.64558204442E+01  0.51100000000E-03 0.  1.
        -12    1    3    3    0    0 -0.18538302503E+02 -0.18013577416E+00  0.17258655284E+02  0.25329079944E+02  0.00000000000E+00 0.  1.
</event>
<event>
 7    1  0.4119299E-008  0.4614232E+02  0.7816164E-02  0.1320468E+00
        -11   -1    0    0    0    0  0.00000000000E+00  0.00000000000E+00  0.45593999997E+02  0.45594000000E+02  0.51100000000E-03 0.  1.
         11   -1    0    0    0    0 -0.00000000000E+00 -0.00000000000E+00 -0.45593999997E+02  0.45594000000E+02  0.51100000000E-03 0. -1.
    9900012    2    1    2    0    0  0.20778056299E+02  0.36826729135E+02  0.15529902411E+02  0.46142317951E+02  0.10000001735E+02 0.  0.
        -12    1    1    2    0    0 -0.20778056299E+02 -0.36826729135E+02 -0.15529902411E+02  0.45045682049E+02  0.00000000000E+00 0.  1.
         11    1    3    3    0    0  0.14892676931E+01  0.19642805348E+01 -0.23347123753E+00  0.24760503551E+01  0.51100000000E-03 0. -1.
        -11    1    3    3    0    0  0.16368018477E+02  0.24949195276E+02  0.84723042319E+01  0.31018612365E+02  0.51100000000E-03 0.  1.
        -12    1    3    3    0    0  0.29207701287E+01  0.99132533235E+01  0.72910694170E+01  0.12647655231E+02  0.00000000000E+00 0.  1.
</event>
<event>
 7    1  0.4119299E-008  0.4614232E+02  0.7816164E-02  0.1320468E+00
        -11   -1    0    0    0    0  0.00000000000E+00  0.00000000000E+00  0.45593999997E+02  0.45594000000E+02  0.51100000000E-03 0. -1.
         11   -1    0    0    0    0 -0.00000000000E+00 -0.00000000000E+00 -0.45593999997E+02  0.45594000000E+02  0.51100000000E-03 0.  1.
    9900012    2    1    2    0    0 -0.66799648793E+01 -0.41551707309E+02 -0.16060733994E+02  0.46142317771E+02  0.10000000091E+02 0.  0.
        -12    1    1    2    0    0  0.66799648793E+01  0.41551707309E+02  0.16060733994E+02  0.45045682229E+02  0.00000000000E+00 0.  1.
         11    1    3    3    0    0 -0.32623213757E+01 -0.18638257427E+02 -0.12175842285E+02  0.22500633686E+02  0.51100000000E-03 0. -1.
        -11    1    3    3    0    0  0.12116497785E+00 -0.75234972957E+01 -0.10426392936E+01  0.75963668598E+01  0.51100000000E-03 0.  1.
         12    1    3    3    0    0 -0.35388084814E+01 -0.15389952586E+02 -0.28422524157E+01  0.16045317225E+02  0.00000000000E+00 0. -1.
</event>
<event>
 7    1  0.4119299E-008  0.4614232E+02  0.7816164E-02  0.1320468E+00
        -11   -1    0    0    0    0  0.00000000000E+00  0.00000000000E+00  0.45593999997E+02  0.45594000000E+02  0.51100000000E-03 0.  1.
         11   -1    0    0    0    0 -0.00000000000E+00 -0.00000000000E+00 -0.45593999997E+02  0.45594000000E+02  0.51100000000E-03 0. -1.
    9900012    2    1    2    0    0  0.22360675873E+01 -0.44092300585E+02 -0.89432848852E+01  0.46142319700E+02  0.10000017683E+02 0.  0.
        -12    1    1    2    0    0 -0.22360675873E+01  0.44092300585E+02  0.89432848852E+01  0.45045680300E+02  0.00000000000E+00 0.  1.
         11    1    3    3    0    0 -0.11908850341E+01 -0.18223576665E+02 -0.58691548018E+01  0.19182385982E+02  0.51100000000E-03 0. -1.
        -11    1    3    3    0    0 -0.13659859340E+01 -0.87470239607E+01  0.32064443113E+00  0.88588463614E+01  0.51100000000E-03 0.  1.
        -12    1    3    3    0    0  0.47929385554E+01 -0.17121699959E+02 -0.33947745145E+01  0.18101087357E+02  0.00000000000E+00 0.  1.
</event>
<event>
 7    1  0.4119299E-008  0.4614232E+02  0.7816164E-02  0.1320468E+00
        -11   -1    0    0    0    0  0.00000000000E+00  0.00000000000E+00  0.45593999997E+02  0.45594000000E+02  0.51100000000E-03 0.  1.
         11   -1    0    0    0    0 -0.00000000000E+00 -0.00000000000E+00 -0.45593999997E+02  0.45594000000E+02  0.51100000000E-03 0. -1.
    9900012    2    1    2    0    0  0.30687947263E+02  0.27355600770E+01 -0.32861528873E+02  0.46142317899E+02  0.10000001254E+02 0.  0.
        -12    1    1    2    0    0 -0.30687947263E+02 -0.27355600770E+01  0.32861528873E+02  0.45045682101E+02  0.00000000000E+00 0.  1.
         11    1    3    3    0    0  0.18004193585E+01  0.42933702811E+00 -0.15947051914E+01  0.24431383627E+01  0.51100000000E-03 0. -1.
        -11    1    3    3    0    0  0.13644129462E+01 -0.21877292070E+01 -0.19160462232E+01  0.32123223938E+01  0.51100000000E-03 0.  1.
        -12    1    3    3    0    0  0.27523114958E+02  0.44939522559E+01 -0.29350777458E+02  0.40486857142E+02  0.00000000000E+00 0.  1.
</event>
<event>
 7    1  0.4119299E-008  0.4614232E+02  0.7816164E-02  0.1320468E+00
        -11   -1    0    0    0    0  0.00000000000E+00  0.00000000000E+00  0.45593999997E+02  0.45594000000E+02  0.51100000000E-03 0.  1.
         11   -1    0    0    0    0 -0.00000000000E+00 -0.00000000000E+00 -0.45593999997E+02  0.45594000000E+02  0.51100000000E-03 0. -1.
    9900012    2    1    2    0    0 -0.24199771562E+02 -0.28568777593E+02 -0.25046146828E+02  0.46142317990E+02  0.10000002090E+02 0.  0.
        -12    1    1    2    0    0  0.24199771562E+02  0.28568777593E+02  0.25046146828E+02  0.45045682010E+02  0.00000000000E+00 0.  1.
         11    1    3    3    0    0 -0.67166733815E+01 -0.11595777502E+02 -0.12343532432E+02  0.18219180836E+02  0.51100000000E-03 0. -1.
        -11    1    3    3    0    0  0.78680282889E-01 -0.12958333661E+01 -0.96758938733E+00  0.16191368637E+01  0.51100000000E-03 0.  1.
         12    1    3    3    0    0 -0.17561778464E+02 -0.15677166725E+02 -0.11735025008E+02  0.26304000290E+02  0.00000000000E+00 0. -1.
</event>
<event>
 7    1  0.4119299E-008  0.4614232E+02  0.7816164E-02  0.1320468E+00
        -11   -1    0    0    0    0  0.00000000000E+00  0.00000000000E+00  0.45593999997E+02  0.45594000000E+02  0.51100000000E-03 0. -1.
         11   -1    0    0    0    0 -0.00000000000E+00 -0.00000000000E+00 -0.45593999997E+02  0.45594000000E+02  0.51100000000E-03 0.  1.
    9900012    2    1    2    0    0 -0.41534588905E+02 -0.67649405706E+01  0.16069444584E+02  0.46142317125E+02  0.99999941963E+01 0.  0.
        -12    1    1    2    0    0  0.41534588905E+02  0.67649405706E+01 -0.16069444584E+02  0.45045682875E+02  0.00000000000E+00 0.  1.
         11    1    3    3    0    0 -0.11971778451E+02 -0.91106181778E+00  0.89881900759E+01  0.14998035672E+02  0.51100000000E-03 0. -1.
        -11    1    3    3    0    0 -0.25180694197E+02 -0.57877063471E+01  0.69672435921E+01  0.26760182894E+02  0.51100000000E-03 0.  1.
         12    1    3    3    0    0 -0.43821162574E+01 -0.66172405687E-01  0.11401091590E+00  0.43840985584E+01  0.00000000000E+00 0. -1.
</event>
<event>
 7    1  0.4119299E-008  0.4614232E+02  0.7816164E-02  0.1320468E+00
        -11   -1    0    0    0    0  0.00000000000E+00  0.00000000000E+00  0.45593999997E+02  0.45594000000E+02  0.51100000000E-03 0.  1.
         11   -1    0    0    0    0 -0.00000000000E+00 -0.00000000000E+00 -0.45593999997E+02  0.45594000000E+02  0.51100000000E-03 0. -1.
    9900012    2    1    2    0    0  0.13056026759E+01  0.44254739831E+02 -0.83022184936E+01  0.46142318433E+02  0.10000006130E+02 0.  0.
        -12    1    1    2    0    0 -0.13056026759E+01 -0.44254739831E+02  0.83022184936E+01  0.45045681567E+02  0.00000000000E+00 0.  1.
         11    1    3    3    0    0 -0.28462420240E-02  0.24513926013E+02 -0.26155483938E+01  0.24653066145E+02  0.51100000000E-03 0. -1.
        -11    1    3    3    0    0 -0.22382083751E+00  0.10391843829E+02  0.87388047613E-01  0.10394621247E+02  0.51100000000E-03 0.  1.
         12    1    3    3    0    0  0.15322697554E+01  0.93489699889E+01 -0.57740581474E+01  0.11094631041E+02  0.00000000000E+00 0. -1.
</event>
<event>
 7    1  0.4119299E-008  0.4614232E+02  0.7816164E-02  0.1320468E+00
        -11   -1    0    0    0    0  0.00000000000E+00  0.00000000000E+00  0.45593999997E+02  0.45594000000E+02  0.51100000000E-03 0. -1.
         11   -1    0    0    0    0 -0.00000000000E+00 -0.00000000000E+00 -0.45593999997E+02  0.45594000000E+02  0.51100000000E-03 0.  1.
    9900012    2    1    2    0    0  0.23997870229E+02 -0.30033125351E+02  0.23478225075E+02  0.46142318226E+02  0.10000004237E+02 0.  0.
        -12    1    1    2    0    0 -0.23997870229E+02  0.30033125351E+02 -0.23478225075E+02  0.45045681774E+02  0.00000000000E+00 0.  1.
         11    1    3    3    0    0  0.44022807596E+01 -0.75859680426E+01  0.10048347494E+02  0.13337776226E+02  0.51100000000E-03 0. -1.
        -11    1    3    3    0    0  0.42804750563E+00 -0.21567338088E-01  0.18484359696E+00  0.46675179015E+00  0.51100000000E-03 0.  1.
        -12    1    3    3    0    0  0.19167541963E+02 -0.22425589970E+02  0.13245033984E+02  0.32337790210E+02  0.00000000000E+00 0.  1.
</event>
<event>
 7    1  0.4119299E-008  0.4614232E+02  0.7816164E-02  0.1320468E+00
        -11   -1    0    0    0    0  0.00000000000E+00  0.00000000000E+00  0.45593999997E+02  0.45594000000E+02  0.51100000000E-03 0.  1.
         11   -1    0    0    0    0 -0.00000000000E+00 -0.00000000000E+00 -0.45593999997E+02  0.45594000000E+02  0.51100000000E-03 0. -1.
    9900012    2    1    2    0    0  0.24209590444E+02  0.94311579924E+01 -0.36797587819E+02  0.46142317856E+02  0.10000000864E+02 0.  0.
        -12    1    1    2    0    0 -0.24209590444E+02 -0.94311579924E+01  0.36797587819E+02  0.45045682144E+02  0.00000000000E+00 0.  1.
         11    1    3    3    0    0  0.21271719623E+02  0.65442445143E+01 -0.30414634743E+02  0.37687706202E+02  0.51100000000E-03 0. -1.
        -11    1    3    3    0    0  0.29930723349E+01  0.36478399473E+00 -0.36747832961E+01  0.47534810297E+01  0.51100000000E-03 0.  1.
         12    1    3    3    0    0 -0.55201514081E-01  0.25221294834E+01 -0.27081697803E+01  0.37011306241E+01  0.00000000000E+00 0. -1.
</event>
<event>
 7    1  0.4119299E-008  0.4614232E+02  0.7816164E-02  0.1320468E+00
        -11   -1    0    0    0    0  0.00000000000E+00  0.00000000000E+00  0.45593999997E+02  0.45594000000E+02  0.51100000000E-03 0.  1.
         11   -1    0    0    0    0 -0.00000000000E+00 -0.00000000000E+00 -0.45593999997E+02  0.45594000000E+02  0.51100000000E-03 0. -1.
    9900012    2    1    2    0    0 -0.10315287651E+02 -0.36446754229E+02 -0.24379138770E+02  0.46142318073E+02  0.10000002842E+02 0.  0.
        -12    1    1    2    0    0  0.10315287651E+02  0.36446754229E+02  0.24379138770E+02  0.45045681927E+02  0.00000000000E+00 0.  1.
         11    1    3    3    0    0 -0.62302493278E+01 -0.15941543554E+02 -0.14516557401E+02  0.22442799660E+02  0.51100000000E-03 0. -1.
        -11    1    3    3    0    0 -0.21874292024E+01 -0.24929178416E+01 -0.24776941631E+01  0.41398616532E+01  0.51100000000E-03 0.  1.
        -12    1    3    3    0    0 -0.18976091203E+01 -0.18012292834E+02 -0.73848872062E+01  0.19559656759E+02  0.00000000000E+00 0.  1.
</event>
<event>
 7    1  0.4119299E-008  0.4614232E+02  0.7816164E-02  0.1320468E+00
        -11   -1    0    0    0    0  0.00000000000E+00  0.00000000000E+00  0.45593999997E+02  0.45594000000E+02  0.51100000000E-03 0.  1.
         11   -1    0    0    0    0 -0.00000000000E+00 -0.00000000000E+00 -0.45593999997E+02  0.45594000000E+02  0.51100000000E-03 0. -1.
    9900012    2    1    2    0    0 -0.42060193543E+02 -0.69111747684E-01 -0.16126029850E+02  0.46142317676E+02  0.99999992236E+01 0.  0.
        -12    1    1    2    0    0  0.42060193543E+02  0.69111747684E-01  0.16126029850E+02  0.45045682324E+02  0.00000000000E+00 0.  1.
         11    1    3    3    0    0 -0.20210605699E+02 -0.15152042352E+01 -0.76307008188E+01  0.21656223629E+02  0.51100000000E-03 0. -1.
        -11    1    3    3    0    0 -0.13815860995E+01 -0.88207400032E+00 -0.25746416161E+01  0.30521491452E+01  0.51100000000E-03 0.  1.
        -12    1    3    3    0    0 -0.20468001744E+02  0.23281664878E+01 -0.59206874152E+01  0.21433944902E+02  0.00000000000E+00 0.  1.
</event>
<event>
 7    1  0.4119299E-008  0.4614232E+02  0.7816164E-02  0.1320468E+00
        -11   -1    0    0    0    0  0.00000000000E+00  0.00000000000E+00  0.45593999997E+02  0.45594000000E+02  0.51100000000E-03 0.  1.
         11   -1    0    0    0    0 -0.00000000000E+00 -0.00000000000E+00 -0.45593999997E+02  0.45594000000E+02  0.51100000000E-03 0. -1.
    9900012    2    1    2    0    0  0.12794097255E+02  0.42918613803E+02  0.48391160959E+01  0.46142318964E+02  0.10000010973E+02 0.  0.
        -12    1    1    2    0    0 -0.12794097255E+02 -0.42918613803E+02 -0.48391160959E+01  0.45045681036E+02  0.00000000000E+00 0.  1.
         11    1    3    3    0    0  0.91282355228E+01  0.23403874545E+02  0.14211723071E+01  0.25161195489E+02  0.51100000000E-03 0. -1.
        -11    1    3    3    0    0  0.33131387437E+01  0.53926117920E+01 -0.41856143798E+00  0.63428971466E+01  0.51100000000E-03 0.  1.
         12    1    3    3    0    0  0.35272298869E+00  0.14122127467E+02  0.38365052268E+01  0.14638226329E+02  0.00000000000E+00 0. -1.
</event>
<event>
 7    1  0.4119299E-008  0.4614232E+02  0.7816164E-02  0.1320468E+00
        -11   -1    0    0    0    0  0.00000000000E+00  0.00000000000E+00  0.45593999997E+02  0.45594000000E+02  0.51100000000E-03 0.  1.
         11   -1    0    0    0    0 -0.00000000000E+00 -0.00000000000E+00 -0.45593999997E+02  0.45594000000E+02  0.51100000000E-03 0. -1.
    9900012    2    1    2    0    0  0.20155719913E+02 -0.16732942883E+02 -0.36645179034E+02  0.46142316864E+02  0.99999918233E+01 0.  0.
        -12    1    1    2    0    0 -0.20155719913E+02  0.16732942883E+02  0.36645179034E+02  0.45045683136E+02  0.00000000000E+00 0.  1.
         11    1    3    3    0    0  0.85999323610E+01 -0.63944596846E+01 -0.89220400799E+01  0.13944559897E+02  0.51100000000E-03 0. -1.
        -11    1    3    3    0    0  0.76590221832E+01 -0.89295070064E+01 -0.23506115823E+02  0.26285627204E+02  0.51100000000E-03 0.  1.
         12    1    3    3    0    0  0.38967653689E+01 -0.14089761916E+01 -0.42170231308E+01  0.59121297630E+01  0.00000000000E+00 0. -1.
</event>
<event>
 7    1  0.4119299E-008  0.4614232E+02  0.7816164E-02  0.1320468E+00
        -11   -1    0    0    0    0  0.00000000000E+00  0.00000000000E+00  0.45593999997E+02  0.45594000000E+02  0.51100000000E-03 0.  1.
         11   -1    0    0    0    0 -0.00000000000E+00 -0.00000000000E+00 -0.45593999997E+02  0.45594000000E+02  0.51100000000E-03 0. -1.
    9900012    2    1    2    0    0  0.20675061864E+02 -0.20589796557E+02 -0.34317861040E+02  0.46142317724E+02  0.99999996633E+01 0.  0.
        -12    1    1    2    0    0 -0.20675061864E+02  0.20589796557E+02  0.34317861040E+02  0.45045682276E+02  0.00000000000E+00 0.  1.
         11    1    3    3    0    0  0.52577308663E+01 -0.48398849264E+01 -0.10170577388E+02  0.12430159477E+02  0.51100000000E-03 0. -1.
        -11    1    3    3    0    0  0.11293728907E+01  0.21137376748E+00 -0.45007188823E+01  0.46450654155E+01  0.51100000000E-03 0.  1.
         12    1    3    3    0    0  0.14287958107E+02 -0.15961285398E+02 -0.19646564770E+02  0.29067092832E+02  0.00000000000E+00 0. -1.
</event>
<event>
 7    1  0.4119299E-008  0.4614232E+02  0.7816164E-02  0.1320468E+00
        -11   -1    0    0    0    0  0.00000000000E+00  0.00000000000E+00  0.45593999997E+02  0.45594000000E+02  0.51100000000E-03 0. -1.
         11   -1    0    0    0    0 -0.00000000000E+00 -0.00000000000E+00 -0.45593999997E+02  0.45594000000E+02  0.51100000000E-03 0.  1.
    9900012    2    1    2    0    0  0.25904810169E+02  0.36276204348E+02 -0.64877862149E+01  0.46142316946E+02  0.99999925701E+01 0.  0.
        -12    1    1    2    0    0 -0.25904810169E+02 -0.36276204348E+02  0.64877862149E+01  0.45045683054E+02  0.00000000000E+00 0.  1.
         11    1    3    3    0    0  0.40377619341E+01  0.11004924991E+02 -0.62809858521E+00  0.11739097222E+02  0.51100000000E-03 0. -1.
        -11    1    3    3    0    0  0.56586505075E+01  0.10444694023E+02 -0.11270438316E+01  0.11932400717E+02  0.51100000000E-03 0.  1.
        -12    1    3    3    0    0  0.16208397727E+02  0.14826585334E+02 -0.47326437981E+01  0.22470819008E+02  0.00000000000E+00 0.  1.
</event>
<event>
 7    1  0.4119299E-008  0.4614232E+02  0.7816164E-02  0.1320468E+00
        -11   -1    0    0    0    0  0.00000000000E+00  0.00000000000E+00  0.45593999997E+02  0.45594000000E+02  0.51100000000E-03 0. -1.
         11   -1    0    0    0    0 -0.00000000000E+00 -0.00000000000E+00 -0.45593999997E+02  0.45594000000E+02  0.51100000000E-03 0.  1.
    9900012    2    1    2    0    0  0.13468303817E+02  0.79311234038E+01  0.42247077794E+02  0.46142317540E+02  0.99999979832E+01 0.  0.
        -12    1    1    2    0    0 -0.13468303817E+02 -0.79311234038E+01 -0.42247077794E+02  0.45045682460E+02  0.00000000000E+00 0.  1.
         11    1    3    3    0    0  0.54855058699E+01  0.65001682821E+01  0.17915601366E+02  0.19832088516E+02  0.51100000000E-03 0. -1.
        -11    1    3    3    0    0  0.90275694592E+00 -0.15602097912E+01  0.87798339594E+01  0.89629631993E+01  0.51100000000E-03 0.  1.
        -12    1    3    3    0    0  0.70800410011E+01  0.29911649128E+01  0.15551642469E+02  0.17347265825E+02  0.00000000000E+00 0.  1.
</event>
<event>
 7    1  0.4119299E-008  0.4614232E+02  0.7816164E-02  0.1320468E+00
        -11   -1    0    0    0    0  0.00000000000E+00  0.00000000000E+00  0.45593999997E+02  0.45594000000E+02  0.51100000000E-03 0.  1.
         11   -1    0    0    0    0 -0.00000000000E+00 -0.00000000000E+00 -0.45593999997E+02  0.45594000000E+02  0.51100000000E-03 0. -1.
    9900012    2    1    2    0    0  0.34653879288E+02  0.12826618919E+02 -0.25762369221E+02  0.46142321290E+02  0.10000032176E+02 0.  0.
        -12    1    1    2    0    0 -0.34653879288E+02 -0.12826618919E+02  0.25762369221E+02  0.45045678710E+02  0.00000000000E+00 0.  1.
         11    1    3    3    0    0  0.57876136350E+01 -0.63467803861E+00 -0.44257943244E+01  0.73134768383E+01  0.51100000000E-03 0. -1.
        -11    1    3    3    0    0  0.11823285174E+02  0.76151520856E+01 -0.65198228491E+01  0.15501248461E+02  0.51100000000E-03 0.  1.
        -12    1    3    3    0    0  0.17042980479E+02  0.58461448718E+01 -0.14816752047E+02  0.23327595991E+02  0.00000000000E+00 0.  1.
</event>
<event>
 7    1  0.4119299E-008  0.4614232E+02  0.7816164E-02  0.1320468E+00
        -11   -1    0    0    0    0  0.00000000000E+00  0.00000000000E+00  0.45593999997E+02  0.45594000000E+02  0.51100000000E-03 0. -1.
         11   -1    0    0    0    0 -0.00000000000E+00 -0.00000000000E+00 -0.45593999997E+02  0.45594000000E+02  0.51100000000E-03 0.  1.
    9900012    2    1    2    0    0  0.28905644951E+01  0.11039686801E+02  0.43576179417E+02  0.46142318072E+02  0.10000002832E+02 0.  0.
        -12    1    1    2    0    0 -0.28905644951E+01 -0.11039686801E+02 -0.43576179417E+02  0.45045681928E+02  0.00000000000E+00 0.  1.
         11    1    3    3    0    0 -0.17418225852E+01  0.17558116300E+01  0.10844056809E+02  0.11122517194E+02  0.51100000000E-03 0. -1.
        -11    1    3    3    0    0  0.99144045432E+00  0.21210268456E+00  0.12592436998E+02  0.12633186911E+02  0.51100000000E-03 0.  1.
         12    1    3    3    0    0  0.36409466260E+01  0.90717724867E+01  0.20139685610E+02  0.22386613966E+02  0.00000000000E+00 0. -1.
</event>
<event>
 7    1  0.4119299E-008  0.4614232E+02  0.7816164E-02  0.1320468E+00
        -11   -1    0    0    0    0  0.00000000000E+00  0.00000000000E+00  0.45593999997E+02  0.45594000000E+02  0.51100000000E-03 0.  1.
         11   -1    0    0    0    0 -0.00000000000E+00 -0.00000000000E+00 -0.45593999997E+02  0.45594000000E+02  0.51100000000E-03 0. -1.
    9900012    2    1    2    0    0 -0.69191455364E+01  0.44424682674E+02 -0.27724633641E+01  0.46142316980E+02  0.99999928789E+01 0.  0.
        -12    1    1    2    0    0  0.69191455364E+01 -0.44424682674E+02  0.27724633641E+01  0.45045683020E+02  0.00000000000E+00 0.  1.
         11    1    3    3    0    0 -0.12591286963E+01  0.24435989434E+02 -0.44201416195E+01  0.24864445236E+02  0.51100000000E-03 0. -1.
        -11    1    3    3    0    0 -0.22929679876E+01  0.11916140476E+02 -0.89915599999E+00  0.12168014949E+02  0.51100000000E-03 0.  1.
        -12    1    3    3    0    0 -0.33670488524E+01  0.80725527640E+01  0.25468342554E+01  0.91098567950E+01  0.00000000000E+00 0.  1.
</event>
<event>
 7    1  0.4119299E-008  0.4614232E+02  0.7816164E-02  0.1320468E+00
        -11   -1    0    0    0    0  0.00000000000E+00  0.00000000000E+00  0.45593999997E+02  0.45594000000E+02  0.51100000000E-03 0.  1.
         11   -1    0    0    0    0 -0.00000000000E+00 -0.00000000000E+00 -0.45593999997E+02  0.45594000000E+02  0.51100000000E-03 0. -1.
    9900012    2    1    2    0    0  0.25870529419E+02 -0.61942625396E+01 -0.36351890057E+02  0.46142322166E+02  0.10000040166E+02 0.  0.
        -12    1    1    2    0    0 -0.25870529419E+02  0.61942625396E+01  0.36351890057E+02  0.45045677834E+02  0.00000000000E+00 0.  1.
         11    1    3    3    0    0  0.96829920616E+01 -0.37780664210E+01 -0.12836491246E+02  0.16516949746E+02  0.51100000000E-03 0. -1.
        -11    1    3    3    0    0  0.25517385699E+01 -0.32428226874E+01 -0.36064893003E+01  0.54803315634E+01  0.51100000000E-03 0.  1.
         12    1    3    3    0    0  0.13635798788E+02  0.82662656882E+00 -0.19908909510E+02  0.24145040856E+02  0.00000000000E+00 0. -1.
</event>
<event>
 7    1  0.4119299E-008  0.4614232E+02  0.7816164E-02  0.1320468E+00
        -11   -1    0    0    0    0  0.00000000000E+00  0.00000000000E+00  0.45593999997E+02  0.45594000000E+02  0.51100000000E-03 0. -1.
         11   -1    0    0    0    0 -0.00000000000E+00 -0.00000000000E+00 -0.45593999997E+02  0.45594000000E+02  0.51100000000E-03 0.  1.
    9900012    2    1    2    0    0  0.34403989436E+02 -0.28341281834E+02  0.65000473239E+01  0.46142319183E+02  0.10000012961E+02 0.  0.
        -12    1    1    2    0    0 -0.34403989436E+02  0.28341281834E+02 -0.65000473239E+01  0.45045680817E+02  0.00000000000E+00 0.  1.
         11    1    3    3    0    0  0.24290869522E+02 -0.17543408931E+02  0.33522371146E+01  0.30150539514E+02  0.51100000000E-03 0. -1.
        -11    1    3    3    0    0  0.30764693217E+01 -0.36946499135E+01  0.35637850062E+01  0.59846190608E+01  0.51100000000E-03 0.  1.
         12    1    3    3    0    0  0.70366505918E+01 -0.71032229895E+01 -0.41597479701E+00  0.10007160607E+02  0.00000000000E+00 0. -1.
</event>
<event>
 7    1  0.4119299E-008  0.4614232E+02  0.7816164E-02  0.1320468E+00
        -11   -1    0    0    0    0  0.00000000000E+00  0.00000000000E+00  0.45593999997E+02  0.45594000000E+02  0.51100000000E-03 0. -1.
         11   -1    0    0    0    0 -0.00000000000E+00 -0.00000000000E+00 -0.45593999997E+02  0.45594000000E+02  0.51100000000E-03 0.  1.
    9900012    2    1    2    0    0  0.77129600503E+01  0.32712181655E+02  0.29992278539E+02  0.46142319260E+02  0.10000013669E+02 0.  0.
        -12    1    1    2    0    0 -0.77129600503E+01 -0.32712181655E+02 -0.29992278539E+02  0.45045680740E+02  0.00000000000E+00 0.  1.
         11    1    3    3    0    0 -0.21206855262E+00  0.30287692062E+01  0.32697323227E+01  0.44620136372E+01  0.51100000000E-03 0.  1.
        -11    1    3    3    0    0  0.49069469117E+01  0.18232308760E+02  0.10528012978E+02  0.21617915446E+02  0.51100000000E-03 0. -1.
        -12    1    3    3    0    0  0.30180816912E+01  0.11451103688E+02  0.16194533239E+02  0.20062390177E+02  0.00000000000E+00 0.  1.
</event>
<event>
 7    1  0.4119299E-008  0.4614232E+02  0.7816164E-02  0.1320468E+00
        -11   -1    0    0    0    0  0.00000000000E+00  0.00000000000E+00  0.45593999997E+02  0.45594000000E+02  0.51100000000E-03 0. -1.
         11   -1    0    0    0    0 -0.00000000000E+00 -0.00000000000E+00 -0.45593999997E+02  0.45594000000E+02  0.51100000000E-03 0.  1.
    9900012    2    1    2    0    0  0.97561862201E+01  0.38811886316E+02  0.20677708930E+02  0.46142319457E+02  0.10000015464E+02 0.  0.
        -12    1    1    2    0    0 -0.97561862201E+01 -0.38811886316E+02 -0.20677708930E+02  0.45045680543E+02  0.00000000000E+00 0.  1.
         11    1    3    3    0    0  0.62445111896E+01  0.26933939682E+02  0.14534715079E+02  0.31236020384E+02  0.51100000000E-03 0. -1.
        -11    1    3    3    0    0  0.49494962168E+01  0.83758696654E+01  0.50735231169E+01  0.10972390010E+02  0.51100000000E-03 0.  1.
         12    1    3    3    0    0 -0.14378211862E+01  0.35020769691E+01  0.10694707346E+01  0.39339090626E+01  0.00000000000E+00 0. -1.
</event>
<event>
 7    1  0.4119299E-008  0.4614232E+02  0.7816164E-02  0.1320468E+00
        -11   -1    0    0    0    0  0.00000000000E+00  0.00000000000E+00  0.45593999997E+02  0.45594000000E+02  0.51100000000E-03 0.  1.
         11   -1    0    0    0    0 -0.00000000000E+00 -0.00000000000E+00 -0.45593999997E+02  0.45594000000E+02  0.51100000000E-03 0. -1.
    9900012    2    1    2    0    0  0.16033139055E+02  0.19898736706E+01 -0.42048686281E+02  0.46142321371E+02  0.10000032922E+02 0.  0.
        -12    1    1    2    0    0 -0.16033139055E+02 -0.19898736706E+01  0.42048686281E+02  0.45045678629E+02  0.00000000000E+00 0.  1.
         11    1    3    3    0    0  0.70405056963E+01  0.14962094784E+01 -0.20217089679E+02  0.21460150945E+02  0.51100000000E-03 0. -1.
        -11    1    3    3    0    0  0.74422128412E+01  0.22349740035E+01 -0.10218933099E+02  0.12837765955E+02  0.51100000000E-03 0.  1.
         12    1    3    3    0    0  0.15504205173E+01 -0.17413098114E+01 -0.11612663503E+02  0.11844404471E+02  0.00000000000E+00 0. -1.
</event>
<event>
 7    1  0.4119299E-008  0.4614233E+02  0.7816164E-02  0.1320468E+00
        -11   -1    0    0    0    0  0.00000000000E+00  0.00000000000E+00  0.45593999997E+02  0.45594000000E+02  0.51100000000E-03 0. -1.
         11   -1    0    0    0    0 -0.00000000000E+00 -0.00000000000E+00 -0.45593999997E+02  0.45594000000E+02  0.51100000000E-03 0.  1.
    9900012    2    1    2    0    0  0.92253102341E+01 -0.40503848157E+02  0.17419665311E+02  0.46142325357E+02  0.10000069269E+02 0.  0.
        -12    1    1    2    0    0 -0.92253102341E+01  0.40503848157E+02 -0.17419665311E+02  0.45045674643E+02  0.00000000000E+00 0.  1.
         11    1    3    3    0    0  0.32981558297E+01 -0.22583168557E+02  0.77793206804E+01  0.24112137286E+02  0.51100000000E-03 0. -1.
        -11    1    3    3    0    0  0.24843217403E+01 -0.13115130464E+02  0.41926911468E+01  0.13991324488E+02  0.51100000000E-03 0.  1.
        -12    1    3    3    0    0  0.34428326641E+01 -0.48055491357E+01  0.54476534834E+01  0.80388635841E+01  0.00000000000E+00 0.  1.
</event>
<event>
 7    1  0.4119299E-008  0.4614232E+02  0.7816164E-02  0.1320468E+00
        -11   -1    0    0    0    0  0.00000000000E+00  0.00000000000E+00  0.45593999997E+02  0.45594000000E+02  0.51100000000E-03 0.  1.
         11   -1    0    0    0    0 -0.00000000000E+00 -0.00000000000E+00 -0.45593999997E+02  0.45594000000E+02  0.51100000000E-03 0. -1.
    9900012    2    1    2    0    0 -0.27151198706E+02  0.16609937548E+02 -0.31875317343E+02  0.46142317940E+02  0.10000001632E+02 0.  0.
        -12    1    1    2    0    0  0.27151198706E+02 -0.16609937548E+02  0.31875317343E+02  0.45045682060E+02  0.00000000000E+00 0.  1.
         11    1    3    3    0    0 -0.18844483129E+02  0.10228485891E+02 -0.16987942052E+02  0.27355559644E+02  0.51100000000E-03 0. -1.
        -11    1    3    3    0    0 -0.49281962113E+01  0.16024622807E+01 -0.44965096094E+01  0.68610204916E+01  0.51100000000E-03 0.  1.
        -12    1    3    3    0    0 -0.33785193660E+01  0.47789893767E+01 -0.10390865681E+02  0.11925737804E+02  0.00000000000E+00 0.  1.
</event>
<event>
 7    1  0.4119299E-008  0.4614232E+02  0.7816164E-02  0.1320468E+00
        -11   -1    0    0    0    0  0.00000000000E+00  0.00000000000E+00  0.45593999997E+02  0.45594000000E+02  0.51100000000E-03 0.  1.
         11   -1    0    0    0    0 -0.00000000000E+00 -0.00000000000E+00 -0.45593999997E+02  0.45594000000E+02  0.51100000000E-03 0. -1.
    9900012    2    1    2    0    0  0.21594919338E+02 -0.34856680661E+02 -0.18648989689E+02  0.46142317140E+02  0.99999943351E+01 0.  0.
        -12    1    1    2    0    0 -0.21594919338E+02  0.34856680661E+02  0.18648989689E+02  0.45045682860E+02  0.00000000000E+00 0.  1.
         11    1    3    3    0    0  0.56217507623E+01 -0.62888318346E+01 -0.27952228745E+01  0.88863242489E+01  0.51100000000E-03 0. -1.
        -11    1    3    3    0    0  0.52101718640E+01 -0.16182581377E+02 -0.10566136401E+02  0.20016619834E+02  0.51100000000E-03 0.  1.
        -12    1    3    3    0    0  0.10762996712E+02 -0.12385267450E+02 -0.52876304131E+01  0.17239373057E+02  0.00000000000E+00 0.  1.
</event>
<event>
 7    1  0.4119299E-008  0.4614232E+02  0.7816164E-02  0.1320468E+00
        -11   -1    0    0    0    0  0.00000000000E+00  0.00000000000E+00  0.45593999997E+02  0.45594000000E+02  0.51100000000E-03 0.  1.
         11   -1    0    0    0    0 -0.00000000000E+00 -0.00000000000E+00 -0.45593999997E+02  0.45594000000E+02  0.51100000000E-03 0. -1.
    9900012    2    1    2    0    0 -0.29161719658E+02 -0.44820575933E+01 -0.34038489080E+02  0.46142317937E+02  0.10000001602E+02 0.  0.
        -12    1    1    2    0    0  0.29161719658E+02  0.44820575933E+01  0.34038489080E+02  0.45045682063E+02  0.00000000000E+00 0.  1.
         11    1    3    3    0    0 -0.42584691542E+01 -0.35169607733E+01 -0.36161131841E+01  0.66015034227E+01  0.51100000000E-03 0. -1.
        -11    1    3    3    0    0 -0.23362971593E+01  0.50948288451E+00 -0.48200637820E+01  0.53806014859E+01  0.51100000000E-03 0.  1.
         12    1    3    3    0    0 -0.22566953344E+02 -0.14745797046E+01 -0.25602312114E+02  0.34160213028E+02  0.00000000000E+00 0. -1.
</event>
<event>
 7    1  0.4119299E-008  0.4614232E+02  0.7816164E-02  0.1320468E+00
        -11   -1    0    0    0    0  0.00000000000E+00  0.00000000000E+00  0.45593999997E+02  0.45594000000E+02  0.51100000000E-03 0. -1.
         11   -1    0    0    0    0 -0.00000000000E+00 -0.00000000000E+00 -0.45593999997E+02  0.45594000000E+02  0.51100000000E-03 0.  1.
    9900012    2    1    2    0    0 -0.61146305092E+01  0.18344429841E+01  0.44591025651E+02  0.46142318122E+02  0.10000003287E+02 0.  0.
        -12    1    1    2    0    0  0.61146305092E+01 -0.18344429841E+01 -0.44591025651E+02  0.45045681878E+02  0.00000000000E+00 0.  1.
         11    1    3    3    0    0 -0.24099438523E+01 -0.15410133328E+01  0.17710588666E+02  0.17940108768E+02  0.51100000000E-03 0. -1.
        -11    1    3    3    0    0  0.11250302524E+01 -0.96154153277E+00  0.19943678834E+01  0.24834972727E+01  0.51100000000E-03 0.  1.
         12    1    3    3    0    0 -0.48297169093E+01  0.43369978496E+01  0.24886069101E+02  0.25718712081E+02  0.00000000000E+00 0. -1.
</event>
<event>
 7    1  0.4119299E-008  0.4614232E+02  0.7816164E-02  0.1320468E+00
        -11   -1    0    0    0    0  0.00000000000E+00  0.00000000000E+00  0.45593999997E+02  0.45594000000E+02  0.51100000000E-03 0.  1.
         11   -1    0    0    0    0 -0.00000000000E+00 -0.00000000000E+00 -0.45593999997E+02  0.45594000000E+02  0.51100000000E-03 0. -1.
    9900012    2    1    2    0    0  0.63309549750E+01 -0.44197079123E+02 -0.59708237454E+01  0.46142317298E+02  0.99999957803E+01 0.  0.
        -12    1    1    2    0    0 -0.63309549750E+01  0.44197079123E+02  0.59708237454E+01  0.45045682702E+02  0.00000000000E+00 0.  1.
         11    1    3    3    0    0  0.35108102920E+01 -0.23724601180E+02 -0.30803356510E+01  0.24179970182E+02  0.51100000000E-03 0. -1.
        -11    1    3    3    0    0 -0.12340743266E+01 -0.63618849909E+01  0.14737734331E+01  0.66459407516E+01  0.51100000000E-03 0.  1.
        -12    1    3    3    0    0  0.40542190097E+01 -0.14110592952E+02 -0.43642615276E+01  0.15316406364E+02  0.00000000000E+00 0.  1.
</event>
<event>
 7    1  0.4119299E-008  0.4614232E+02  0.7816164E-02  0.1320468E+00
        -11   -1    0    0    0    0  0.00000000000E+00  0.00000000000E+00  0.45593999997E+02  0.45594000000E+02  0.51100000000E-03 0.  1.
         11   -1    0    0    0    0 -0.00000000000E+00 -0.00000000000E+00 -0.45593999997E+02  0.45594000000E+02  0.51100000000E-03 0. -1.
    9900012    2    1    2    0    0  0.38976607208E+02 -0.41208779922E+00 -0.22578037762E+02  0.46142317465E+02  0.99999973042E+01 0.  0.
        -12    1    1    2    0    0 -0.38976607208E+02  0.41208779922E+00  0.22578037762E+02  0.45045682535E+02  0.00000000000E+00 0.  1.
         11    1    3    3    0    0  0.89983061544E+01  0.10768416449E+01 -0.34252407073E+01  0.96882080768E+01  0.51100000000E-03 0. -1.
        -11    1    3    3    0    0  0.10547268823E+02 -0.25012701053E+01 -0.32265227101E+01  0.11309804633E+02  0.51100000000E-03 0.  1.
         12    1    3    3    0    0  0.19431032231E+02  0.10123406611E+01 -0.15926274344E+02  0.25144304756E+02  0.00000000000E+00 0. -1.
</event>
<event>
 7    1  0.4119299E-008  0.4614232E+02  0.7816164E-02  0.1320468E+00
        -11   -1    0    0    0    0  0.00000000000E+00  0.00000000000E+00  0.45593999997E+02  0.45594000000E+02  0.51100000000E-03 0.  1.
         11   -1    0    0    0    0 -0.00000000000E+00 -0.00000000000E+00 -0.45593999997E+02  0.45594000000E+02  0.51100000000E-03 0. -1.
    9900012    2    1    2    0    0  0.44728607815E+02 -0.10575096282E+01 -0.52294145823E+01  0.46142318070E+02  0.10000002816E+02 0.  0.
        -12    1    1    2    0    0 -0.44728607815E+02  0.10575096282E+01  0.52294145823E+01  0.45045681930E+02  0.00000000000E+00 0.  1.
         11    1    3    3    0    0  0.19936827300E+02 -0.15678141080E+01  0.13114822411E+01  0.20041335030E+02  0.51100000000E-03 0. -1.
        -11    1    3    3    0    0  0.96711257683E+00 -0.86675472313E+00  0.17288837680E+00  0.13101378318E+01  0.51100000000E-03 0.  1.
        -12    1    3    3    0    0  0.23824667938E+02  0.13770592029E+01 -0.67137852002E+01  0.24790845208E+02  0.00000000000E+00 0.  1.
</event>
<event>
 7    1  0.4119299E-008  0.4614232E+02  0.7816164E-02  0.1320468E+00
        -11   -1    0    0    0    0  0.00000000000E+00  0.00000000000E+00  0.45593999997E+02  0.45594000000E+02  0.51100000000E-03 0.  1.
         11   -1    0    0    0    0 -0.00000000000E+00 -0.00000000000E+00 -0.45593999997E+02  0.45594000000E+02  0.51100000000E-03 0. -1.
    9900012    2    1    2    0    0 -0.81152251834E+01 -0.40193184244E+02 -0.18648446685E+02  0.46142317596E+02  0.99999984984E+01 0.  0.
        -12    1    1    2    0    0  0.81152251834E+01  0.40193184244E+02  0.18648446685E+02  0.45045682404E+02  0.00000000000E+00 0.  1.
         11    1    3    3    0    0 -0.63230741718E+01 -0.23875469415E+02 -0.11345909217E+02  0.27179936773E+02  0.51100000000E-03 0. -1.
        -11    1    3    3    0    0 -0.26046967406E+01 -0.16224651107E+02 -0.75831362600E+01  0.18097726500E+02  0.51100000000E-03 0.  1.
        -12    1    3    3    0    0  0.81254572901E+00 -0.93063721748E-01  0.28059879145E+00  0.86465432388E+00  0.00000000000E+00 0.  1.
</event>
<event>
 7    1  0.4119299E-008  0.4614232E+02  0.7816164E-02  0.1320468E+00
        -11   -1    0    0    0    0  0.00000000000E+00  0.00000000000E+00  0.45593999997E+02  0.45594000000E+02  0.51100000000E-03 0. -1.
         11   -1    0    0    0    0 -0.00000000000E+00 -0.00000000000E+00 -0.45593999997E+02  0.45594000000E+02  0.51100000000E-03 0.  1.
    9900012    2    1    2    0    0  0.29905268074E+02 -0.11268566193E+02  0.31745989761E+02  0.46142317537E+02  0.99999979597E+01 0.  0.
        -12    1    1    2    0    0 -0.29905268074E+02  0.11268566193E+02 -0.31745989761E+02  0.45045682463E+02  0.00000000000E+00 0.  1.
         11    1    3    3    0    0  0.18487597808E+01 -0.95842753185E+00  0.48168100641E+01  0.52476809656E+01  0.51100000000E-03 0. -1.
        -11    1    3    3    0    0  0.10145531521E+02 -0.68961686701E+01  0.81992129272E+01  0.14755203999E+02  0.51100000000E-03 0.  1.
         12    1    3    3    0    0  0.17910976772E+02 -0.34139699912E+01  0.18729966770E+02  0.26139432573E+02  0.00000000000E+00 0. -1.
</event>
<event>
 7    1  0.4119299E-008  0.4614232E+02  0.7816164E-02  0.1320468E+00
        -11   -1    0    0    0    0  0.00000000000E+00  0.00000000000E+00  0.45593999997E+02  0.45594000000E+02  0.51100000000E-03 0.  1.
         11   -1    0    0    0    0 -0.00000000000E+00 -0.00000000000E+00 -0.45593999997E+02  0.45594000000E+02  0.51100000000E-03 0. -1.
    9900012    2    1    2    0    0 -0.28697824676E+02  0.31604643992E+02 -0.14376891238E+02  0.46142315804E+02  0.99999821534E+01 0.  0.
        -12    1    1    2    0    0  0.28697824676E+02 -0.31604643992E+02  0.14376891238E+02  0.45045684196E+02  0.00000000000E+00 0.  1.
         11    1    3    3    0    0 -0.11074709167E+02  0.15167839579E+02 -0.96377233884E+01  0.21109198303E+02  0.51100000000E-03 0. -1.
        -11    1    3    3    0    0 -0.15563116491E+02  0.16194792730E+02 -0.47568957711E+01  0.22958875497E+02  0.51100000000E-03 0.  1.
        -12    1    3    3    0    0 -0.20599990184E+01  0.24201168368E+00  0.17727921315E-01  0.20742420037E+01  0.00000000000E+00 0.  1.
</event>
<event>
 7    1  0.4119299E-008  0.4614232E+02  0.7816164E-02  0.1320468E+00
        -11   -1    0    0    0    0  0.00000000000E+00  0.00000000000E+00  0.45593999997E+02  0.45594000000E+02  0.51100000000E-03 0.  1.
         11   -1    0    0    0    0 -0.00000000000E+00 -0.00000000000E+00 -0.45593999997E+02  0.45594000000E+02  0.51100000000E-03 0. -1.
    9900012    2    1    2    0    0  0.68784116419E+01  0.35606110582E+02 -0.26720886442E+02  0.46142318412E+02  0.10000005935E+02 0.  0.
        -12    1    1    2    0    0 -0.68784116419E+01 -0.35606110582E+02  0.26720886442E+02  0.45045681588E+02  0.00000000000E+00 0.  1.
         11    1    3    3    0    0  0.39608598533E+01  0.32538761636E+02 -0.21359851364E+02  0.39124195457E+02  0.51100000000E-03 0. -1.
        -11    1    3    3    0    0  0.94326228948E+00  0.20708129276E+01 -0.22407204891E+01  0.31935620394E+01  0.51100000000E-03 0.  1.
        -12    1    3    3    0    0  0.19742894991E+01  0.99653601790E+00 -0.31203145895E+01  0.38245609158E+01  0.00000000000E+00 0.  1.
</event>
<event>
 7    1  0.4119299E-008  0.4614232E+02  0.7816164E-02  0.1320468E+00
        -11   -1    0    0    0    0  0.00000000000E+00  0.00000000000E+00  0.45593999997E+02  0.45594000000E+02  0.51100000000E-03 0. -1.
         11   -1    0    0    0    0 -0.00000000000E+00 -0.00000000000E+00 -0.45593999997E+02  0.45594000000E+02  0.51100000000E-03 0.  1.
    9900012    2    1    2    0    0  0.37030673137E+02  0.22775092324E+01  0.25547125298E+02  0.46142318606E+02  0.10000007702E+02 0.  0.
        -12    1    1    2    0    0 -0.37030673137E+02 -0.22775092324E+01 -0.25547125298E+02  0.45045681394E+02  0.00000000000E+00 0.  1.
         11    1    3    3    0    0  0.21592613259E+02  0.39358699071E+01  0.15128243513E+02  0.26657002294E+02  0.51100000000E-03 0. -1.
        -11    1    3    3    0    0  0.82793826525E+01  0.12882908143E+01  0.73905943722E+01  0.11172678988E+02  0.51100000000E-03 0.  1.
        -12    1    3    3    0    0  0.71586772256E+01 -0.29466514891E+01  0.30282874132E+01  0.83126373237E+01  0.00000000000E+00 0.  1.
</event>
<event>
 7    1  0.4119299E-008  0.4614232E+02  0.7816164E-02  0.1320468E+00
        -11   -1    0    0    0    0  0.00000000000E+00  0.00000000000E+00  0.45593999997E+02  0.45594000000E+02  0.51100000000E-03 0. -1.
         11   -1    0    0    0    0 -0.00000000000E+00 -0.00000000000E+00 -0.45593999997E+02  0.45594000000E+02  0.51100000000E-03 0.  1.
    9900012    2    1    2    0    0 -0.81747162434E+01  0.11594342312E+02  0.42753465824E+02  0.46142316530E+02  0.99999887751E+01 0.  0.
        -12    1    1    2    0    0  0.81747162434E+01 -0.11594342312E+02 -0.42753465824E+02  0.45045683470E+02  0.00000000000E+00 0.  1.
         11    1    3    3    0    0 -0.24715270578E+01  0.67342181399E+01  0.19366626915E+02  0.20652466639E+02  0.51100000000E-03 0. -1.
        -11    1    3    3    0    0 -0.70370937413E+01  0.49020208491E+01  0.17978139964E+02  0.19918936055E+02  0.51100000000E-03 0.  1.
        -12    1    3    3    0    0  0.13339045557E+01 -0.41896676606E-01  0.54086989448E+01  0.55709138362E+01  0.00000000000E+00 0.  1.
</event>
<event>
 7    1  0.4119299E-008  0.4614232E+02  0.7816164E-02  0.1320468E+00
        -11   -1    0    0    0    0  0.00000000000E+00  0.00000000000E+00  0.45593999997E+02  0.45594000000E+02  0.51100000000E-03 0. -1.
         11   -1    0    0    0    0 -0.00000000000E+00 -0.00000000000E+00 -0.45593999997E+02  0.45594000000E+02  0.51100000000E-03 0.  1.
    9900012    2    1    2    0    0 -0.36660775086E+02 -0.14298478252E+02 -0.21923839610E+02  0.46142315929E+02  0.99999832899E+01 0.  0.
        -12    1    1    2    0    0  0.36660775086E+02  0.14298478252E+02  0.21923839610E+02  0.45045684071E+02  0.00000000000E+00 0.  1.
         11    1    3    3    0    0 -0.21945490962E+02 -0.55946064511E+01 -0.10418074447E+02  0.24928707755E+02  0.51100000000E-03 0. -1.
        -11    1    3    3    0    0 -0.66282197500E+00 -0.16785837285E+00 -0.22369712233E+01  0.23391344380E+01  0.51100000000E-03 0.  1.
         12    1    3    3    0    0 -0.14052462148E+02 -0.85360134278E+01 -0.92687939403E+01  0.18874473735E+02  0.00000000000E+00 0. -1.
</event>
<event>
 7    1  0.4119299E-008  0.4614232E+02  0.7816164E-02  0.1320468E+00
        -11   -1    0    0    0    0  0.00000000000E+00  0.00000000000E+00  0.45593999997E+02  0.45594000000E+02  0.51100000000E-03 0.  1.
         11   -1    0    0    0    0 -0.00000000000E+00 -0.00000000000E+00 -0.45593999997E+02  0.45594000000E+02  0.51100000000E-03 0. -1.
    9900012    2    1    2    0    0 -0.42579392747E+02 -0.12457446545E+02 -0.78051662095E+01  0.46142320066E+02  0.10000021018E+02 0.  0.
        -12    1    1    2    0    0  0.42579392747E+02  0.12457446545E+02  0.78051662095E+01  0.45045679934E+02  0.00000000000E+00 0.  1.
         11    1    3    3    0    0 -0.14202867793E+02 -0.25033713061E+01 -0.25368271203E+01  0.14643217323E+02  0.51100000000E-03 0. -1.
        -11    1    3    3    0    0 -0.58969992037E+01  0.11036264132E+01 -0.12188647042E+01  0.61219459566E+01  0.51100000000E-03 0.  1.
        -12    1    3    3    0    0 -0.22479525750E+02 -0.11057701652E+02 -0.40494743850E+01  0.25377156787E+02  0.00000000000E+00 0.  1.
</event>
<event>
 7    1  0.4119299E-008  0.4614232E+02  0.7816164E-02  0.1320468E+00
        -11   -1    0    0    0    0  0.00000000000E+00  0.00000000000E+00  0.45593999997E+02  0.45594000000E+02  0.51100000000E-03 0.  1.
         11   -1    0    0    0    0 -0.00000000000E+00 -0.00000000000E+00 -0.45593999997E+02  0.45594000000E+02  0.51100000000E-03 0. -1.
    9900012    2    1    2    0    0  0.86353314756E+01 -0.65371464935E+01 -0.43724252706E+02  0.46142317536E+02  0.99999979442E+01 0.  0.
        -12    1    1    2    0    0 -0.86353314756E+01  0.65371464935E+01  0.43724252706E+02  0.45045682464E+02  0.00000000000E+00 0.  1.
         11    1    3    3    0    0 -0.48717361080E+00  0.28024130394E+00 -0.17172358515E+00  0.58767556212E+00  0.51100000000E-03 0. -1.
        -11    1    3    3    0    0  0.34603851085E+01 -0.30560121300E+01 -0.30407980654E+02  0.30756442625E+02  0.51100000000E-03 0.  1.
         12    1    3    3    0    0  0.56621199778E+01 -0.37613756675E+01 -0.13144548467E+02  0.14798199348E+02  0.00000000000E+00 0. -1.
</event>
<event>
 7    1  0.4119299E-008  0.4614232E+02  0.7816164E-02  0.1320468E+00
        -11   -1    0    0    0    0  0.00000000000E+00  0.00000000000E+00  0.45593999997E+02  0.45594000000E+02  0.51100000000E-03 0. -1.
         11   -1    0    0    0    0 -0.00000000000E+00 -0.00000000000E+00 -0.45593999997E+02  0.45594000000E+02  0.51100000000E-03 0.  1.
    9900012    2    1    2    0    0  0.30670649901E+02 -0.12322781541E+02 -0.30603487064E+02  0.46142321731E+02  0.10000036201E+02 0.  0.
        -12    1    1    2    0    0 -0.30670649901E+02  0.12322781541E+02  0.30603487064E+02  0.45045678269E+02  0.00000000000E+00 0.  1.
         11    1    3    3    0    0  0.29960143416E+01 -0.36845650040E+01 -0.50746474482E+01  0.69501200125E+01  0.51100000000E-03 0.  1.
        -11    1    3    3    0    0  0.14058259119E+02 -0.73261267544E+01 -0.15982749284E+02  0.22511220704E+02  0.51100000000E-03 0. -1.
         12    1    3    3    0    0  0.13616376441E+02 -0.13120897825E+01 -0.95460903318E+01  0.16680981014E+02  0.00000000000E+00 0. -1.
</event>
<event>
 7    1  0.4119299E-008  0.4614232E+02  0.7816164E-02  0.1320468E+00
        -11   -1    0    0    0    0  0.00000000000E+00  0.00000000000E+00  0.45593999997E+02  0.45594000000E+02  0.51100000000E-03 0.  1.
         11   -1    0    0    0    0 -0.00000000000E+00 -0.00000000000E+00 -0.45593999997E+02  0.45594000000E+02  0.51100000000E-03 0. -1.
    9900012    2    1    2    0    0 -0.24707347100E+02 -0.93961915551E+01 -0.36474262989E+02  0.46142320107E+02  0.10000021388E+02 0.  0.
        -12    1    1    2    0    0  0.24707347100E+02  0.93961915551E+01  0.36474262989E+02  0.45045679893E+02  0.00000000000E+00 0.  1.
         11    1    3    3    0    0 -0.93602578223E+01 -0.98969840755E+00 -0.16584913433E+02  0.19069695417E+02  0.51100000000E-03 0. -1.
        -11    1    3    3    0    0 -0.52712259185E+01 -0.60060127304E+01 -0.92562061120E+01  0.12228465294E+02  0.51100000000E-03 0.  1.
         12    1    3    3    0    0 -0.10075863360E+02 -0.24004804171E+01 -0.10633143444E+02  0.14844159396E+02  0.00000000000E+00 0. -1.
</event>
<event>
 7    1  0.4119299E-008  0.4614232E+02  0.7816164E-02  0.1320468E+00
        -11   -1    0    0    0    0  0.00000000000E+00  0.00000000000E+00  0.45593999997E+02  0.45594000000E+02  0.51100000000E-03 0.  1.
         11   -1    0    0    0    0 -0.00000000000E+00 -0.00000000000E+00 -0.45593999997E+02  0.45594000000E+02  0.51100000000E-03 0. -1.
    9900012    2    1    2    0    0 -0.40381672545E+02 -0.94358936264E+01 -0.17589708920E+02  0.46142318454E+02  0.10000006314E+02 0.  0.
        -12    1    1    2    0    0  0.40381672545E+02  0.94358936264E+01  0.17589708920E+02  0.45045681546E+02  0.00000000000E+00 0.  1.
         11    1    3    3    0    0 -0.34748685491E+01 -0.26836784218E+01 -0.26759912746E+01  0.51417672904E+01  0.51100000000E-03 0. -1.
        -11    1    3    3    0    0 -0.20286561738E+02 -0.24351309974E+01 -0.45132804158E+01  0.20924725817E+02  0.51100000000E-03 0.  1.
         12    1    3    3    0    0 -0.16620242258E+02 -0.43170842072E+01 -0.10400437230E+02  0.20075825346E+02  0.00000000000E+00 0. -1.
</event>
<event>
 7    1  0.4119299E-008  0.4614232E+02  0.7816164E-02  0.1320468E+00
        -11   -1    0    0    0    0  0.00000000000E+00  0.00000000000E+00  0.45593999997E+02  0.45594000000E+02  0.51100000000E-03 0.  1.
         11   -1    0    0    0    0 -0.00000000000E+00 -0.00000000000E+00 -0.45593999997E+02  0.45594000000E+02  0.51100000000E-03 0. -1.
    9900012    2    1    2    0    0  0.16044367388E+02 -0.31687807692E+02 -0.27705137603E+02  0.46142317290E+02  0.99999957000E+01 0.  0.
        -12    1    1    2    0    0 -0.16044367388E+02  0.31687807692E+02  0.27705137603E+02  0.45045682710E+02  0.00000000000E+00 0.  1.
         11    1    3    3    0    0  0.80168401384E+01 -0.20163844962E+02 -0.15550382574E+02  0.26695781837E+02  0.51100000000E-03 0. -1.
        -11    1    3    3    0    0  0.71415681101E+01 -0.54223622710E+01 -0.79507295114E+01  0.11984077257E+02  0.51100000000E-03 0.  1.
        -12    1    3    3    0    0  0.88595913959E+00 -0.61016004594E+01 -0.42040255180E+01  0.74624581955E+01  0.00000000000E+00 0.  1.
</event>
<event>
 7    1  0.4119299E-008  0.4614232E+02  0.7816164E-02  0.1320468E+00
        -11   -1    0    0    0    0  0.00000000000E+00  0.00000000000E+00  0.45593999997E+02  0.45594000000E+02  0.51100000000E-03 0.  1.
         11   -1    0    0    0    0 -0.00000000000E+00 -0.00000000000E+00 -0.45593999997E+02  0.45594000000E+02  0.51100000000E-03 0. -1.
    9900012    2    1    2    0    0 -0.94713527971E+01  0.34571217285E+01 -0.43902795174E+02  0.46142316094E+02  0.99999847969E+01 0.  0.
        -12    1    1    2    0    0  0.94713527971E+01 -0.34571217285E+01  0.43902795174E+02  0.45045683906E+02  0.00000000000E+00 0.  1.
         11    1    3    3    0    0 -0.33395895056E+01 -0.13432817969E+01 -0.11483982874E+02  0.12034912836E+02  0.51100000000E-03 0. -1.
        -11    1    3    3    0    0  0.14534396223E+01  0.51732657498E+00 -0.24240015126E+01  0.28733076959E+01  0.51100000000E-03 0.  1.
         12    1    3    3    0    0 -0.75852029137E+01  0.42830769504E+01 -0.29994810787E+02  0.31234095562E+02  0.00000000000E+00 0. -1.
</event>
<event>
 7    1  0.4119299E-008  0.4614232E+02  0.7816164E-02  0.1320468E+00
        -11   -1    0    0    0    0  0.00000000000E+00  0.00000000000E+00  0.45593999997E+02  0.45594000000E+02  0.51100000000E-03 0.  1.
         11   -1    0    0    0    0 -0.00000000000E+00 -0.00000000000E+00 -0.45593999997E+02  0.45594000000E+02  0.51100000000E-03 0. -1.
    9900012    2    1    2    0    0  0.86130863803E+00  0.37723467620E+02 -0.24603081937E+02  0.46142317603E+02  0.99999985553E+01 0.  0.
        -12    1    1    2    0    0 -0.86130863803E+00 -0.37723467620E+02  0.24603081937E+02  0.45045682397E+02  0.00000000000E+00 0.  1.
         11    1    3    3    0    0  0.29054403291E+01  0.19084956455E+02 -0.92832354702E+01  0.21420915187E+02  0.51100000000E-03 0. -1.
        -11    1    3    3    0    0 -0.31551418963E+01  0.88433433910E+01 -0.59174985211E+01  0.11098487813E+02  0.51100000000E-03 0.  1.
         12    1    3    3    0    0  0.11110102053E+01  0.97951677747E+01 -0.94023479452E+01  0.13622914603E+02  0.00000000000E+00 0. -1.
</event>
<event>
 7    1  0.4119299E-008  0.4614232E+02  0.7816164E-02  0.1320468E+00
        -11   -1    0    0    0    0  0.00000000000E+00  0.00000000000E+00  0.45593999997E+02  0.45594000000E+02  0.51100000000E-03 0.  1.
         11   -1    0    0    0    0 -0.00000000000E+00 -0.00000000000E+00 -0.45593999997E+02  0.45594000000E+02  0.51100000000E-03 0. -1.
    9900012    2    1    2    0    0  0.25420514972E+02  0.27956365185E+01 -0.37082276944E+02  0.46142318428E+02  0.10000006078E+02 0.  0.
        -12    1    1    2    0    0 -0.25420514972E+02 -0.27956365185E+01  0.37082276944E+02  0.45045681572E+02  0.00000000000E+00 0.  1.
         11    1    3    3    0    0  0.11232523426E+02  0.15727389757E+01 -0.17010419814E+02  0.20444986498E+02  0.51100000000E-03 0. -1.
        -11    1    3    3    0    0  0.13074987971E+01  0.15945373362E+01 -0.71780168595E+01  0.74683350700E+01  0.51100000000E-03 0.  1.
        -12    1    3    3    0    0  0.12880492748E+02 -0.37163979338E+00 -0.12893840270E+02  0.18228996859E+02  0.00000000000E+00 0.  1.
</event>
<event>
 7    1  0.4119299E-008  0.4614232E+02  0.7816164E-02  0.1320468E+00
        -11   -1    0    0    0    0  0.00000000000E+00  0.00000000000E+00  0.45593999997E+02  0.45594000000E+02  0.51100000000E-03 0.  1.
         11   -1    0    0    0    0 -0.00000000000E+00 -0.00000000000E+00 -0.45593999997E+02  0.45594000000E+02  0.51100000000E-03 0. -1.
    9900012    2    1    2    0    0 -0.17472525533E+02 -0.30130309981E+02 -0.28565515467E+02  0.46142318720E+02  0.10000008744E+02 0.  0.
        -12    1    1    2    0    0  0.17472525533E+02  0.30130309981E+02  0.28565515467E+02  0.45045681280E+02  0.00000000000E+00 0.  1.
         11    1    3    3    0    0 -0.58437033581E+01 -0.17643259543E+02 -0.15777258941E+02  0.24379404755E+02  0.51100000000E-03 0. -1.
        -11    1    3    3    0    0 -0.14168293478E+01 -0.27980514672E+01 -0.71287754190E+00  0.32163165367E+01  0.51100000000E-03 0.  1.
         12    1    3    3    0    0 -0.10211992827E+02 -0.96889989707E+01 -0.12075378985E+02  0.18546597429E+02  0.00000000000E+00 0. -1.
</event>
<event>
 7    1  0.4119299E-008  0.4614232E+02  0.7816164E-02  0.1320468E+00
        -11   -1    0    0    0    0  0.00000000000E+00  0.00000000000E+00  0.45593999997E+02  0.45594000000E+02  0.51100000000E-03 0. -1.
         11   -1    0    0    0    0 -0.00000000000E+00 -0.00000000000E+00 -0.45593999997E+02  0.45594000000E+02  0.51100000000E-03 0.  1.
    9900012    2    1    2    0    0 -0.33483849219E+02  0.27120407174E+02 -0.13131210599E+02  0.46142319457E+02  0.10000015460E+02 0.  0.
        -12    1    1    2    0    0  0.33483849219E+02 -0.27120407174E+02  0.13131210599E+02  0.45045680543E+02  0.00000000000E+00 0.  1.
         11    1    3    3    0    0 -0.16101625487E+02  0.14012259145E+02 -0.17754634392E+01  0.21418637220E+02  0.51100000000E-03 0. -1.
        -11    1    3    3    0    0 -0.11678840029E+02  0.74298678678E+01 -0.62093443760E+01  0.15170833820E+02  0.51100000000E-03 0.  1.
         12    1    3    3    0    0 -0.57033837028E+01  0.56782801614E+01 -0.51464027834E+01  0.95528484162E+01  0.00000000000E+00 0. -1.
</event>
<event>
 7    1  0.4119299E-008  0.4614232E+02  0.7816164E-02  0.1320468E+00
        -11   -1    0    0    0    0  0.00000000000E+00  0.00000000000E+00  0.45593999997E+02  0.45594000000E+02  0.51100000000E-03 0.  1.
         11   -1    0    0    0    0 -0.00000000000E+00 -0.00000000000E+00 -0.45593999997E+02  0.45594000000E+02  0.51100000000E-03 0. -1.
    9900012    2    1    2    0    0 -0.11896731573E+02  0.64812554170E+01 -0.42960151488E+02  0.46142317523E+02  0.99999978290E+01 0.  0.
        -12    1    1    2    0    0  0.11896731573E+02 -0.64812554170E+01  0.42960151488E+02  0.45045682477E+02  0.00000000000E+00 0.  1.
         11    1    3    3    0    0 -0.80583858688E+01  0.28934305925E+01 -0.20385533123E+02  0.22110619267E+02  0.51100000000E-03 0. -1.
        -11    1    3    3    0    0 -0.46716130960E+01  0.46017702620E+01 -0.20897042185E+02  0.21901749492E+02  0.51100000000E-03 0.  1.
        -12    1    3    3    0    0  0.83326739163E+00 -0.10139454375E+01 -0.16775761803E+01  0.21299487639E+01  0.00000000000E+00 0.  1.
</event>
<event>
 7    1  0.4119299E-008  0.4614232E+02  0.7816164E-02  0.1320468E+00
        -11   -1    0    0    0    0  0.00000000000E+00  0.00000000000E+00  0.45593999997E+02  0.45594000000E+02  0.51100000000E-03 0.  1.
         11   -1    0    0    0    0 -0.00000000000E+00 -0.00000000000E+00 -0.45593999997E+02  0.45594000000E+02  0.51100000000E-03 0. -1.
    9900012    2    1    2    0    0  0.17190597958E+02  0.25007446287E+02 -0.33290005838E+02  0.46142317447E+02  0.99999971370E+01 0.  0.
        -12    1    1    2    0    0 -0.17190597958E+02 -0.25007446287E+02  0.33290005838E+02  0.45045682553E+02  0.00000000000E+00 0.  1.
         11    1    3    3    0    0  0.16683818241E+02  0.18715803873E+02 -0.27908787752E+02  0.37517083306E+02  0.51100000000E-03 0. -1.
        -11    1    3    3    0    0  0.79199043098E+00  0.72251364929E+00 -0.14461986322E+01  0.18002126433E+01  0.51100000000E-03 0.  1.
         12    1    3    3    0    0 -0.28521071398E+00  0.55691287644E+01 -0.39350194534E+01  0.68250214977E+01  0.00000000000E+00 0. -1.
</event>
<event>
 7    1  0.4119299E-008  0.4614232E+02  0.7816164E-02  0.1320468E+00
        -11   -1    0    0    0    0  0.00000000000E+00  0.00000000000E+00  0.45593999997E+02  0.45594000000E+02  0.51100000000E-03 0. -1.
         11   -1    0    0    0    0 -0.00000000000E+00 -0.00000000000E+00 -0.45593999997E+02  0.45594000000E+02  0.51100000000E-03 0.  1.
    9900012    2    1    2    0    0 -0.15556491958E+02 -0.22215830559E+02  0.35966176961E+02  0.46142318135E+02  0.10000003409E+02 0.  0.
        -12    1    1    2    0    0  0.15556491958E+02  0.22215830559E+02 -0.35966176961E+02  0.45045681865E+02  0.00000000000E+00 0.  1.
         11    1    3    3    0    0 -0.64671582164E+01 -0.10542751625E+02  0.10964291450E+02  0.16528443197E+02  0.51100000000E-03 0. -1.
        -11    1    3    3    0    0 -0.61769164692E+01 -0.11260279830E+02  0.21462286030E+02  0.25011555745E+02  0.51100000000E-03 0.  1.
         12    1    3    3    0    0 -0.29124172722E+01 -0.41279910413E+00  0.35395994810E+01  0.46023191930E+01  0.00000000000E+00 0. -1.
</event>
<event>
 7    1  0.4119299E-008  0.4614233E+02  0.7816164E-02  0.1320468E+00
        -11   -1    0    0    0    0  0.00000000000E+00  0.00000000000E+00  0.45593999997E+02  0.45594000000E+02  0.51100000000E-03 0. -1.
         11   -1    0    0    0    0 -0.00000000000E+00 -0.00000000000E+00 -0.45593999997E+02  0.45594000000E+02  0.51100000000E-03 0.  1.
    9900012    2    1    2    0    0 -0.28894423507E+02  0.30435789465E+02  0.16367279672E+02  0.46142325024E+02  0.10000066232E+02 0.  0.
        -12    1    1    2    0    0  0.28894423507E+02 -0.30435789465E+02 -0.16367279672E+02  0.45045674976E+02  0.00000000000E+00 0.  1.
         11    1    3    3    0    0 -0.12108692215E+02  0.11686539160E+02  0.48872047312E+01  0.17523709511E+02  0.51100000000E-03 0. -1.
        -11    1    3    3    0    0  0.24338650875E+00 -0.34865547380E+00 -0.22484210232E+00  0.48099050318E+00  0.51100000000E-03 0.  1.
        -12    1    3    3    0    0 -0.17029117800E+02  0.19097905779E+02  0.11704917043E+02  0.28137625010E+02  0.00000000000E+00 0.  1.
</event>
<event>
 7    1  0.4119299E-008  0.4614232E+02  0.7816164E-02  0.1320468E+00
        -11   -1    0    0    0    0  0.00000000000E+00  0.00000000000E+00  0.45593999997E+02  0.45594000000E+02  0.51100000000E-03 0. -1.
         11   -1    0    0    0    0 -0.00000000000E+00 -0.00000000000E+00 -0.45593999997E+02  0.45594000000E+02  0.51100000000E-03 0.  1.
    9900012    2    1    2    0    0  0.84198704396E+01  0.43466520644E+01  0.44037776438E+02  0.46142319230E+02  0.10000013395E+02 0.  0.
        -12    1    1    2    0    0 -0.84198704396E+01 -0.43466520644E+01 -0.44037776438E+02  0.45045680770E+02  0.00000000000E+00 0.  1.
         11    1    3    3    0    0  0.21144852400E+01 -0.24405114166E+01  0.55290876194E+01  0.64029644672E+01  0.51100000000E-03 0.  1.
        -11    1    3    3    0    0  0.28979950688E+01  0.36659385746E+01  0.12974007685E+02  0.13789936792E+02  0.51100000000E-03 0. -1.
        -12    1    3    3    0    0  0.34073901308E+01  0.31212249065E+01  0.25534681134E+02  0.25949417971E+02  0.00000000000E+00 0.  1.
</event>
<event>
 7    1  0.4119299E-008  0.4614232E+02  0.7816164E-02  0.1320468E+00
        -11   -1    0    0    0    0  0.00000000000E+00  0.00000000000E+00  0.45593999997E+02  0.45594000000E+02  0.51100000000E-03 0.  1.
         11   -1    0    0    0    0 -0.00000000000E+00 -0.00000000000E+00 -0.45593999997E+02  0.45594000000E+02  0.51100000000E-03 0. -1.
    9900012    2    1    2    0    0  0.82295768467E+01  0.59161495555E+00 -0.44283603505E+02  0.46142317824E+02  0.10000000571E+02 0.  0.
        -12    1    1    2    0    0 -0.82295768467E+01 -0.59161495555E+00  0.44283603505E+02  0.45045682176E+02  0.00000000000E+00 0.  1.
         11    1    3    3    0    0  0.18185163577E+01  0.17241736088E+01 -0.20046234972E+02  0.20202260101E+02  0.51100000000E-03 0. -1.
        -11    1    3    3    0    0 -0.33953961187E+00  0.89880538059E+00 -0.33143475409E+00  0.10163599350E+01  0.51100000000E-03 0.  1.
        -12    1    3    3    0    0  0.67506001009E+01 -0.20313640338E+01 -0.23905933779E+02  0.24923697788E+02  0.00000000000E+00 0.  1.
</event>
<event>
 7    1  0.4119299E-008  0.4614232E+02  0.7816164E-02  0.1320468E+00
        -11   -1    0    0    0    0  0.00000000000E+00  0.00000000000E+00  0.45593999997E+02  0.45594000000E+02  0.51100000000E-03 0. -1.
         11   -1    0    0    0    0 -0.00000000000E+00 -0.00000000000E+00 -0.45593999997E+02  0.45594000000E+02  0.51100000000E-03 0.  1.
    9900012    2    1    2    0    0 -0.34401572511E+02  0.79890240123E+01 -0.27961058810E+02  0.46142317569E+02  0.99999982459E+01 0.  0.
        -12    1    1    2    0    0  0.34401572511E+02 -0.79890240123E+01  0.27961058810E+02  0.45045682431E+02  0.00000000000E+00 0.  1.
         11    1    3    3    0    0 -0.19972564177E+02  0.63369557138E+01 -0.21472758059E+02  0.30002327683E+02  0.51100000000E-03 0. -1.
        -11    1    3    3    0    0 -0.47640501188E+01  0.15447783802E+01 -0.31386546171E+01  0.59104709495E+01  0.51100000000E-03 0.  1.
        -12    1    3    3    0    0 -0.96649582153E+01  0.10728991828E+00 -0.33496461347E+01  0.10229518936E+02  0.00000000000E+00 0.  1.
</event>
<event>
 7    1  0.4119299E-008  0.4614232E+02  0.7816164E-02  0.1320468E+00
        -11   -1    0    0    0    0  0.00000000000E+00  0.00000000000E+00  0.45593999997E+02  0.45594000000E+02  0.51100000000E-03 0.  1.
         11   -1    0    0    0    0 -0.00000000000E+00 -0.00000000000E+00 -0.45593999997E+02  0.45594000000E+02  0.51100000000E-03 0. -1.
    9900012    2    1    2    0    0  0.20773613943E+02  0.65406994268E+01 -0.39430821869E+02  0.46142317649E+02  0.99999989791E+01 0.  0.
        -12    1    1    2    0    0 -0.20773613943E+02 -0.65406994268E+01  0.39430821869E+02  0.45045682351E+02  0.00000000000E+00 0.  1.
         11    1    3    3    0    0  0.10225562819E+01  0.17290933210E+01 -0.49699294777E+01  0.53605582113E+01  0.51100000000E-03 0. -1.
        -11    1    3    3    0    0  0.18693952012E+02  0.39878637560E+01 -0.34499691591E+02  0.39441039784E+02  0.51100000000E-03 0.  1.
        -12    1    3    3    0    0  0.10571056489E+01  0.82374234979E+00  0.38799199713E-01  0.13407196537E+01  0.00000000000E+00 0.  1.
</event>
<event>
 7    1  0.4119299E-008  0.4614232E+02  0.7816164E-02  0.1320468E+00
        -11   -1    0    0    0    0  0.00000000000E+00  0.00000000000E+00  0.45593999997E+02  0.45594000000E+02  0.51100000000E-03 0.  1.
         11   -1    0    0    0    0 -0.00000000000E+00 -0.00000000000E+00 -0.45593999997E+02  0.45594000000E+02  0.51100000000E-03 0. -1.
    9900012    2    1    2    0    0  0.41887399523E+02  0.76136818341E+01 -0.14717036301E+02  0.46142317107E+02  0.99999940313E+01 0.  0.
        -12    1    1    2    0    0 -0.41887399523E+02 -0.76136818341E+01  0.14717036301E+02  0.45045682893E+02  0.00000000000E+00 0.  1.
         11    1    3    3    0    0  0.27222749636E+02  0.75153438284E+01 -0.10041001699E+02  0.29972991275E+02  0.51100000000E-03 0. -1.
        -11    1    3    3    0    0  0.13305272274E+02 -0.33120731270E+00 -0.24607621001E+01  0.13534966529E+02  0.51100000000E-03 0.  1.
        -12    1    3    3    0    0  0.13593776127E+01  0.42954531835E+00 -0.22152725022E+01  0.26343593023E+01  0.00000000000E+00 0.  1.
</event>
<event>
 7    1  0.4241832E-008  0.4614232E+02  0.7816164E-02  0.1320468E+00
        -11   -1    0    0    0    0  0.00000000000E+00  0.00000000000E+00  0.45593999997E+02  0.45594000000E+02  0.51100000000E-03 0. -1.
         11   -1    0    0    0    0 -0.00000000000E+00 -0.00000000000E+00 -0.45593999997E+02  0.45594000000E+02  0.51100000000E-03 0.  1.
    9900012    2    1    2    0    0 -0.37143068991E+02  0.17685329432E+02  0.18350342972E+02  0.46142317206E+02  0.99999949366E+01 0.  0.
        -12    1    1    2    0    0  0.37143068991E+02 -0.17685329432E+02 -0.18350342972E+02  0.45045682794E+02  0.00000000000E+00 0.  1.
         11    1    3    3    0    0 -0.12513051075E+01  0.16740944049E+01  0.13432001937E+01  0.24844604183E+01  0.51100000000E-03 0.  1.
        -11    1    3    3    0    0 -0.36713243062E+01  0.48374607789E+01  0.32167020471E+01  0.68721773311E+01  0.51100000000E-03 0. -1.
         12    1    3    3    0    0 -0.32220439577E+02  0.11173774248E+02  0.13790440731E+02  0.36785679456E+02  0.00000000000E+00 0. -1.
</event>
<event>
 7    1  0.4119299E-008  0.4614232E+02  0.7816164E-02  0.1320468E+00
        -11   -1    0    0    0    0  0.00000000000E+00  0.00000000000E+00  0.45593999997E+02  0.45594000000E+02  0.51100000000E-03 0.  1.
         11   -1    0    0    0    0 -0.00000000000E+00 -0.00000000000E+00 -0.45593999997E+02  0.45594000000E+02  0.51100000000E-03 0. -1.
    9900012    2    1    2    0    0 -0.11150118683E+02 -0.13778310489E+02 -0.41411911992E+02  0.46142318283E+02  0.10000004757E+02 0.  0.
        -12    1    1    2    0    0  0.11150118683E+02  0.13778310489E+02  0.41411911992E+02  0.45045681717E+02  0.00000000000E+00 0.  1.
         11    1    3    3    0    0 -0.64274262633E+01 -0.58939135425E+01 -0.23566999178E+02  0.25128738045E+02  0.51100000000E-03 0.  1.
        -11    1    3    3    0    0 -0.39814241342E+00  0.13555884200E+00 -0.62632463033E+01  0.62773519973E+01  0.51100000000E-03 0. -1.
        -12    1    3    3    0    0 -0.43245500058E+01 -0.80199557881E+01 -0.11581666511E+02  0.14736228241E+02  0.00000000000E+00 0.  1.
</event>
<event>
 7    1  0.4119299E-008  0.4614232E+02  0.7816164E-02  0.1320468E+00
        -11   -1    0    0    0    0  0.00000000000E+00  0.00000000000E+00  0.45593999997E+02  0.45594000000E+02  0.51100000000E-03 0.  1.
         11   -1    0    0    0    0 -0.00000000000E+00 -0.00000000000E+00 -0.45593999997E+02  0.45594000000E+02  0.51100000000E-03 0. -1.
    9900012    2    1    2    0    0  0.18265075201E+02 -0.25560895460E+02 -0.32282208695E+02  0.46142319330E+02  0.10000014306E+02 0.  0.
        -12    1    1    2    0    0 -0.18265075201E+02  0.25560895460E+02  0.32282208695E+02  0.45045680670E+02  0.00000000000E+00 0.  1.
         11    1    3    3    0    0  0.15687555079E+02 -0.16413825181E+02 -0.21515727457E+02  0.31280018698E+02  0.51100000000E-03 0. -1.
        -11    1    3    3    0    0  0.21988827483E+00  0.24075239576E+00  0.68827299387E-01  0.33324169568E+00  0.51100000000E-03 0.  1.
         12    1    3    3    0    0  0.23576318471E+01 -0.93878226746E+01 -0.10835308537E+02  0.14529058936E+02  0.00000000000E+00 0. -1.
</event>
<event>
 7    1  0.4119299E-008  0.4614232E+02  0.7816164E-02  0.1320468E+00
        -11   -1    0    0    0    0  0.00000000000E+00  0.00000000000E+00  0.45593999997E+02  0.45594000000E+02  0.51100000000E-03 0. -1.
         11   -1    0    0    0    0 -0.00000000000E+00 -0.00000000000E+00 -0.45593999997E+02  0.45594000000E+02  0.51100000000E-03 0.  1.
    9900012    2    1    2    0    0 -0.39178945542E+02  0.32260381396E+01  0.21993553026E+02  0.46142317959E+02  0.10000001802E+02 0.  0.
        -12    1    1    2    0    0  0.39178945542E+02 -0.32260381396E+01 -0.21993553026E+02  0.45045682041E+02  0.00000000000E+00 0.  1.
         11    1    3    3    0    0 -0.12994740058E+02  0.25895627437E+01  0.49142749177E+01  0.14132204450E+02  0.51100000000E-03 0. -1.
        -11    1    3    3    0    0 -0.11287510800E+02 -0.60109331256E+00  0.35478549271E+01  0.11847214359E+02  0.51100000000E-03 0.  1.
         12    1    3    3    0    0 -0.14896694684E+02  0.12375687084E+01  0.13531423181E+02  0.20162899150E+02  0.00000000000E+00 0. -1.
</event>
<event>
 7    1  0.4119299E-008  0.4614232E+02  0.7816164E-02  0.1320468E+00
        -11   -1    0    0    0    0  0.00000000000E+00  0.00000000000E+00  0.45593999997E+02  0.45594000000E+02  0.51100000000E-03 0. -1.
         11   -1    0    0    0    0 -0.00000000000E+00 -0.00000000000E+00 -0.45593999997E+02  0.45594000000E+02  0.51100000000E-03 0.  1.
    9900012    2    1    2    0    0 -0.32457608830E+02  0.29661132763E+02  0.97894998284E+01  0.46142317914E+02  0.10000001391E+02 0.  0.
        -12    1    1    2    0    0  0.32457608830E+02 -0.29661132763E+02 -0.97894998284E+01  0.45045682086E+02  0.00000000000E+00 0.  1.
         11    1    3    3    0    0 -0.47016836381E+01  0.19847877734E+01  0.31798681215E+01  0.60130502301E+01  0.51100000000E-03 0. -1.
        -11    1    3    3    0    0 -0.67683287915E+01  0.10317056793E+02  0.23767403941E+01  0.12565859726E+02  0.51100000000E-03 0.  1.
         12    1    3    3    0    0 -0.20987596400E+02  0.17359288197E+02  0.42328913129E+01  0.27563407958E+02  0.00000000000E+00 0. -1.
</event>
<event>
 7    1  0.4119299E-008  0.4614232E+02  0.7816164E-02  0.1320468E+00
        -11   -1    0    0    0    0  0.00000000000E+00  0.00000000000E+00  0.45593999997E+02  0.45594000000E+02  0.51100000000E-03 0.  1.
         11   -1    0    0    0    0 -0.00000000000E+00 -0.00000000000E+00 -0.45593999997E+02  0.45594000000E+02  0.51100000000E-03 0. -1.
    9900012    2    1    2    0    0 -0.24770773268E+02  0.18215829050E+02 -0.32919689815E+02  0.46142316369E+02  0.99999873044E+01 0.  0.
        -12    1    1    2    0    0  0.24770773268E+02 -0.18215829050E+02  0.32919689815E+02  0.45045683631E+02  0.00000000000E+00 0.  1.
         11    1    3    3    0    0 -0.11376719794E+02  0.95407469523E+01 -0.12347611100E+02  0.19311113531E+02  0.51100000000E-03 0. -1.
        -11    1    3    3    0    0 -0.95762050961E+01  0.30493053136E+01 -0.94467381368E+01  0.13792854259E+02  0.51100000000E-03 0.  1.
        -12    1    3    3    0    0 -0.38178483780E+01  0.56257767842E+01 -0.11125340578E+02  0.13038348578E+02  0.00000000000E+00 0.  1.
</event>
<event>
 7    1  0.4119299E-008  0.4614232E+02  0.7816164E-02  0.1320468E+00
        -11   -1    0    0    0    0  0.00000000000E+00  0.00000000000E+00  0.45593999997E+02  0.45594000000E+02  0.51100000000E-03 0.  1.
         11   -1    0    0    0    0 -0.00000000000E+00 -0.00000000000E+00 -0.45593999997E+02  0.45594000000E+02  0.51100000000E-03 0. -1.
    9900012    2    1    2    0    0 -0.64328038687E+01  0.42274310336E+02 -0.14163877545E+02  0.46142315333E+02  0.99999778600E+01 0.  0.
        -12    1    1    2    0    0  0.64328038687E+01 -0.42274310336E+02  0.14163877545E+02  0.45045684667E+02  0.00000000000E+00 0.  1.
         11    1    3    3    0    0 -0.22900645502E+01  0.26530729218E+02 -0.52965109722E+01  0.27151003982E+02  0.51100000000E-03 0. -1.
        -11    1    3    3    0    0 -0.47562730930E+01  0.12894144303E+02 -0.63478826146E+01  0.15138583322E+02  0.51100000000E-03 0.  1.
         12    1    3    3    0    0  0.61353377453E+00  0.28494368151E+01 -0.25194839578E+01  0.38527280295E+01  0.00000000000E+00 0. -1.
</event>
<event>
 7    1  0.4119299E-008  0.4614232E+02  0.7816164E-02  0.1320468E+00
        -11   -1    0    0    0    0  0.00000000000E+00  0.00000000000E+00  0.45593999997E+02  0.45594000000E+02  0.51100000000E-03 0.  1.
         11   -1    0    0    0    0 -0.00000000000E+00 -0.00000000000E+00 -0.45593999997E+02  0.45594000000E+02  0.51100000000E-03 0. -1.
    9900012    2    1    2    0    0 -0.11740701347E+02  0.43487976726E+02 -0.25549060699E+00  0.46142318039E+02  0.10000002536E+02 0.  0.
        -12    1    1    2    0    0  0.11740701347E+02 -0.43487976726E+02  0.25549060699E+00  0.45045681961E+02  0.00000000000E+00 0.  1.
         11    1    3    3    0    0 -0.35238186346E+01  0.16329557948E+02  0.19622567781E+01  0.16820291688E+02  0.51100000000E-03 0. -1.
        -11    1    3    3    0    0 -0.65065902947E+01  0.17735890700E+02  0.17150917777E+01  0.18969424774E+02  0.51100000000E-03 0.  1.
        -12    1    3    3    0    0 -0.17102924173E+01  0.94225280784E+01 -0.39328391627E+01  0.10352601577E+02  0.00000000000E+00 0.  1.
</event>
<event>
 7    1  0.4119299E-008  0.4614231E+02  0.7816164E-02  0.1320468E+00
        -11   -1    0    0    0    0  0.00000000000E+00  0.00000000000E+00  0.45593999997E+02  0.45594000000E+02  0.51100000000E-03 0. -1.
         11   -1    0    0    0    0 -0.00000000000E+00 -0.00000000000E+00 -0.45593999997E+02  0.45594000000E+02  0.51100000000E-03 0.  1.
    9900012    2    1    2    0    0  0.44407839889E+02 -0.66746629878E+01  0.35364533655E+01  0.46142313502E+02  0.99999611646E+01 0.  0.
        -12    1    1    2    0    0 -0.44407839889E+02  0.66746629878E+01 -0.35364533655E+01  0.45045686498E+02  0.00000000000E+00 0.  1.
         11    1    3    3    0    0  0.15627936677E+02  0.42348456530E+00  0.22485096483E+01  0.15794541457E+02  0.51100000000E-03 0. -1.
        -11    1    3    3    0    0  0.27284322845E+02 -0.50043774001E+01  0.13715547210E+01  0.27773354656E+02  0.51100000000E-03 0.  1.
        -12    1    3    3    0    0  0.14955803681E+01 -0.20937701530E+01 -0.83611003751E-01  0.25744173887E+01  0.00000000000E+00 0.  1.
</event>
<event>
 7    1  0.4119299E-008  0.4614232E+02  0.7816164E-02  0.1320468E+00
        -11   -1    0    0    0    0  0.00000000000E+00  0.00000000000E+00  0.45593999997E+02  0.45594000000E+02  0.51100000000E-03 0.  1.
         11   -1    0    0    0    0 -0.00000000000E+00 -0.00000000000E+00 -0.45593999997E+02  0.45594000000E+02  0.51100000000E-03 0. -1.
    9900012    2    1    2    0    0  0.44027720858E+02 -0.63850213358E+01  0.70643221593E+01  0.46142319308E+02  0.10000014110E+02 0.  0.
        -12    1    1    2    0    0 -0.44027720858E+02  0.63850213358E+01 -0.70643221593E+01  0.45045680692E+02  0.00000000000E+00 0.  1.
         11    1    3    3    0    0  0.77303736897E+01 -0.27688570520E+01  0.41714167969E+01  0.92101012541E+01  0.51100000000E-03 0. -1.
        -11    1    3    3    0    0  0.71227360207E+01 -0.66613419560E+00  0.25870929173E+01  0.76072434700E+01  0.51100000000E-03 0.  1.
        -12    1    3    3    0    0  0.29174611147E+02 -0.29500300881E+01  0.30581244508E+00  0.29324974584E+02  0.00000000000E+00 0.  1.
</event>
<event>
 7    1  0.4119299E-008  0.4614232E+02  0.7816164E-02  0.1320468E+00
        -11   -1    0    0    0    0  0.00000000000E+00  0.00000000000E+00  0.45593999997E+02  0.45594000000E+02  0.51100000000E-03 0.  1.
         11   -1    0    0    0    0 -0.00000000000E+00 -0.00000000000E+00 -0.45593999997E+02  0.45594000000E+02  0.51100000000E-03 0. -1.
    9900012    2    1    2    0    0 -0.32363937705E+02 -0.21524874042E+02 -0.22767715184E+02  0.46142317399E+02  0.99999966950E+01 0.  0.
        -12    1    1    2    0    0  0.32363937705E+02  0.21524874042E+02  0.22767715184E+02  0.45045682601E+02  0.00000000000E+00 0.  1.
         11    1    3    3    0    0 -0.13701990097E+02 -0.70336421636E+01 -0.10877898543E+02  0.18855909728E+02  0.51100000000E-03 0. -1.
        -11    1    3    3    0    0 -0.12214625786E+02 -0.85568694434E+01 -0.10890913827E+02  0.18466973277E+02  0.51100000000E-03 0.  1.
        -12    1    3    3    0    0 -0.64473218229E+01 -0.59343624353E+01 -0.99890281411E+00  0.88194343942E+01  0.00000000000E+00 0.  1.
</event>
<event>
 7    1  0.4119299E-008  0.4614232E+02  0.7816164E-02  0.1320468E+00
        -11   -1    0    0    0    0  0.00000000000E+00  0.00000000000E+00  0.45593999997E+02  0.45594000000E+02  0.51100000000E-03 0. -1.
         11   -1    0    0    0    0 -0.00000000000E+00 -0.00000000000E+00 -0.45593999997E+02  0.45594000000E+02  0.51100000000E-03 0.  1.
    9900012    2    1    2    0    0  0.16493235121E+02 -0.28998954992E+02  0.30267925398E+02  0.46142317595E+02  0.99999984886E+01 0.  0.
        -12    1    1    2    0    0 -0.16493235121E+02  0.28998954992E+02 -0.30267925398E+02  0.45045682405E+02  0.00000000000E+00 0.  1.
         11    1    3    3    0    0  0.88152944134E+01 -0.18361785631E+02  0.12565906049E+02  0.23932542327E+02  0.51100000000E-03 0. -1.
        -11    1    3    3    0    0  0.37225204771E+01 -0.41925635405E+01  0.96741051253E+01  0.11181371024E+02  0.51100000000E-03 0.  1.
        -12    1    3    3    0    0  0.39554202305E+01 -0.64446058206E+01  0.80279142237E+01  0.11028404244E+02  0.00000000000E+00 0.  1.
</event>
<event>
 7    1  0.4119299E-008  0.4614232E+02  0.7816164E-02  0.1320468E+00
        -11   -1    0    0    0    0  0.00000000000E+00  0.00000000000E+00  0.45593999997E+02  0.45594000000E+02  0.51100000000E-03 0. -1.
         11   -1    0    0    0    0 -0.00000000000E+00 -0.00000000000E+00 -0.45593999997E+02  0.45594000000E+02  0.51100000000E-03 0.  1.
    9900012    2    1    2    0    0  0.44455935747E+02 -0.60579164614E+01  0.40105843743E+01  0.46142319163E+02  0.10000012784E+02 0.  0.
        -12    1    1    2    0    0 -0.44455935747E+02  0.60579164614E+01 -0.40105843743E+01  0.45045680837E+02  0.00000000000E+00 0.  1.
         11    1    3    3    0    0  0.20216357486E+02  0.93453028573E+00  0.13549165509E+01  0.20283250626E+02  0.51100000000E-03 0.  1.
        -11    1    3    3    0    0  0.14316032298E+02 -0.34561463593E+01  0.39426891438E+01  0.15245934748E+02  0.51100000000E-03 0. -1.
        -12    1    3    3    0    0  0.99235459644E+01 -0.35363003878E+01 -0.12870213204E+01  0.10613133789E+02  0.00000000000E+00 0.  1.
</event>
<event>
 7    1  0.4119299E-008  0.4614232E+02  0.7816164E-02  0.1320468E+00
        -11   -1    0    0    0    0  0.00000000000E+00  0.00000000000E+00  0.45593999997E+02  0.45594000000E+02  0.51100000000E-03 0.  1.
         11   -1    0    0    0    0 -0.00000000000E+00 -0.00000000000E+00 -0.45593999997E+02  0.45594000000E+02  0.51100000000E-03 0. -1.
    9900012    2    1    2    0    0  0.31270741489E+02 -0.20999930411E+02 -0.24703383496E+02  0.46142317558E+02  0.99999981462E+01 0.  0.
        -12    1    1    2    0    0 -0.31270741489E+02  0.20999930411E+02  0.24703383496E+02  0.45045682442E+02  0.00000000000E+00 0.  1.
         11    1    3    3    0    0  0.92442041836E+01 -0.92239396625E+01 -0.66060382524E+01  0.14634757105E+02  0.51100000000E-03 0. -1.
        -11    1    3    3    0    0  0.26060108018E+01 -0.36228518003E+01 -0.50135112820E+01  0.67120520783E+01  0.51100000000E-03 0.  1.
         12    1    3    3    0    0  0.19420526504E+02 -0.81531389477E+01 -0.13083833961E+02  0.24795508374E+02  0.00000000000E+00 0. -1.
</event>
<event>
 7    1  0.4119299E-008  0.4614232E+02  0.7816164E-02  0.1320468E+00
        -11   -1    0    0    0    0  0.00000000000E+00  0.00000000000E+00  0.45593999997E+02  0.45594000000E+02  0.51100000000E-03 0.  1.
         11   -1    0    0    0    0 -0.00000000000E+00 -0.00000000000E+00 -0.45593999997E+02  0.45594000000E+02  0.51100000000E-03 0. -1.
    9900012    2    1    2    0    0 -0.36391592308E+01 -0.37744006740E+02 -0.24315836779E+02  0.46142318265E+02  0.10000004596E+02 0.  0.
        -12    1    1    2    0    0  0.36391592308E+01  0.37744006740E+02  0.24315836779E+02  0.45045681735E+02  0.00000000000E+00 0.  1.
         11    1    3    3    0    0 -0.13275674565E+01 -0.13551204198E+02 -0.66460904225E+01  0.15151504504E+02  0.51100000000E-03 0. -1.
        -11    1    3    3    0    0 -0.32468944283E+01 -0.72296522839E+01 -0.27749708644E+01  0.83970625301E+01  0.51100000000E-03 0.  1.
         12    1    3    3    0    0  0.93530265405E+00 -0.16963150259E+02 -0.14894775492E+02  0.22593751231E+02  0.00000000000E+00 0. -1.
</event>
<event>
 7    1  0.4119299E-008  0.4614232E+02  0.7816164E-02  0.1320468E+00
        -11   -1    0    0    0    0  0.00000000000E+00  0.00000000000E+00  0.45593999997E+02  0.45594000000E+02  0.51100000000E-03 0.  1.
         11   -1    0    0    0    0 -0.00000000000E+00 -0.00000000000E+00 -0.45593999997E+02  0.45594000000E+02  0.51100000000E-03 0. -1.
    9900012    2    1    2    0    0 -0.19852296344E+02 -0.26064278117E+01 -0.40351038549E+02  0.46142318209E+02  0.10000004080E+02 0.  0.
        -12    1    1    2    0    0  0.19852296344E+02  0.26064278117E+01  0.40351038549E+02  0.45045681791E+02  0.00000000000E+00 0.  1.
         11    1    3    3    0    0 -0.14921474738E+02 -0.31653080360E+01 -0.35232377013E+02  0.38392577063E+02  0.51100000000E-03 0. -1.
        -11    1    3    3    0    0 -0.48793312355E+01  0.13209160096E+01 -0.44435779520E+01  0.67303846611E+01  0.51100000000E-03 0.  1.
         12    1    3    3    0    0 -0.51490370848E-01 -0.76203578532E+00 -0.67508358398E+00  0.10193564841E+01  0.00000000000E+00 0. -1.
</event>
<event>
 7    1  0.4119299E-008  0.4614233E+02  0.7816164E-02  0.1320468E+00
        -11   -1    0    0    0    0  0.00000000000E+00  0.00000000000E+00  0.45593999997E+02  0.45594000000E+02  0.51100000000E-03 0.  1.
         11   -1    0    0    0    0 -0.00000000000E+00 -0.00000000000E+00 -0.45593999997E+02  0.45594000000E+02  0.51100000000E-03 0. -1.
    9900012    2    1    2    0    0  0.27584147921E+02  0.87285872576E+01 -0.34525917388E+02  0.46142329581E+02  0.10000107780E+02 0.  0.
        -12    1    1    2    0    0 -0.27584147921E+02 -0.87285872576E+01  0.34525917388E+02  0.45045670419E+02  0.00000000000E+00 0.  1.
         11    1    3    3    0    0  0.87712028838E+01  0.32545427236E+01 -0.15865890717E+02  0.18418809323E+02  0.51100000000E-03 0. -1.
        -11    1    3    3    0    0  0.16960070165E+02  0.29591222299E+01 -0.16960657220E+02  0.24167421831E+02  0.51100000000E-03 0.  1.
        -12    1    3    3    0    0  0.18528748727E+01  0.25149223041E+01 -0.16993694506E+01  0.35560984265E+01  0.00000000000E+00 0.  1.
</event>
<event>
 7    1  0.4119299E-008  0.4614232E+02  0.7816164E-02  0.1320468E+00
        -11   -1    0    0    0    0  0.00000000000E+00  0.00000000000E+00  0.45593999997E+02  0.45594000000E+02  0.51100000000E-03 0. -1.
         11   -1    0    0    0    0 -0.00000000000E+00 -0.00000000000E+00 -0.45593999997E+02  0.45594000000E+02  0.51100000000E-03 0.  1.
    9900012    2    1    2    0    0  0.11050449216E+02  0.42005768207E+02  0.11938006739E+02  0.46142323233E+02  0.10000049895E+02 0.  0.
        -12    1    1    2    0    0 -0.11050449216E+02 -0.42005768207E+02 -0.11938006739E+02  0.45045676767E+02  0.00000000000E+00 0.  1.
         11    1    3    3    0    0  0.44664561859E+01  0.17678755790E+02  0.94208383052E+00  0.18258564001E+02  0.51100000000E-03 0. -1.
        -11    1    3    3    0    0  0.21963129607E+01  0.57750567568E+01  0.70210718328E+00  0.62183619969E+01  0.51100000000E-03 0.  1.
        -12    1    3    3    0    0  0.43876800698E+01  0.18551955659E+02  0.10293815725E+02  0.21665397235E+02  0.00000000000E+00 0.  1.
</event>
<event>
 7    1  0.4119299E-008  0.4614232E+02  0.7816164E-02  0.1320468E+00
        -11   -1    0    0    0    0  0.00000000000E+00  0.00000000000E+00  0.45593999997E+02  0.45594000000E+02  0.51100000000E-03 0. -1.
         11   -1    0    0    0    0 -0.00000000000E+00 -0.00000000000E+00 -0.45593999997E+02  0.45594000000E+02  0.51100000000E-03 0.  1.
    9900012    2    1    2    0    0  0.12883636371E+01 -0.29979427561E+02  0.33595946257E+02  0.46142316936E+02  0.99999924805E+01 0.  0.
        -12    1    1    2    0    0 -0.12883636371E+01  0.29979427561E+02 -0.33595946257E+02  0.45045683064E+02  0.00000000000E+00 0.  1.
         11    1    3    3    0    0 -0.18381938983E+00 -0.10338107868E+02  0.12524059524E+02  0.16240761407E+02  0.51100000000E-03 0. -1.
        -11    1    3    3    0    0  0.14203317972E+00 -0.19706320778E+02  0.18623711966E+02  0.27114606759E+02  0.51100000000E-03 0.  1.
        -12    1    3    3    0    0  0.13301498473E+01  0.65001085595E-01  0.24481747678E+01  0.27869487707E+01  0.00000000000E+00 0.  1.
</event>
<event>
 7    1  0.4119299E-008  0.4614232E+02  0.7816164E-02  0.1320468E+00
        -11   -1    0    0    0    0  0.00000000000E+00  0.00000000000E+00  0.45593999997E+02  0.45594000000E+02  0.51100000000E-03 0.  1.
         11   -1    0    0    0    0 -0.00000000000E+00 -0.00000000000E+00 -0.45593999997E+02  0.45594000000E+02  0.51100000000E-03 0. -1.
    9900012    2    1    2    0    0  0.24256293945E+02  0.26875364663E+02 -0.26804112940E+02  0.46142317718E+02  0.99999996099E+01 0.  0.
        -12    1    1    2    0    0 -0.24256293945E+02 -0.26875364663E+02  0.26804112940E+02  0.45045682282E+02  0.00000000000E+00 0.  1.
         11    1    3    3    0    0  0.75135921595E+01  0.96891484512E+01 -0.77190057426E+01  0.14488502848E+02  0.51100000000E-03 0. -1.
        -11    1    3    3    0    0 -0.10580762175E+00  0.35840618153E+01 -0.23550559179E+01  0.42898698099E+01  0.51100000000E-03 0.  1.
        -12    1    3    3    0    0  0.16848509407E+02  0.13602154396E+02 -0.16730051280E+02  0.27363945061E+02  0.00000000000E+00 0.  1.
</event>
<event>
 7    1  0.4119299E-008  0.4614232E+02  0.7816164E-02  0.1320468E+00
        -11   -1    0    0    0    0  0.00000000000E+00  0.00000000000E+00  0.45593999997E+02  0.45594000000E+02  0.51100000000E-03 0. -1.
         11   -1    0    0    0    0 -0.00000000000E+00 -0.00000000000E+00 -0.45593999997E+02  0.45594000000E+02  0.51100000000E-03 0.  1.
    9900012    2    1    2    0    0 -0.35635225351E+02 -0.26536288794E+02  0.74208928893E+01  0.46142316965E+02  0.99999927448E+01 0.  0.
        -12    1    1    2    0    0  0.35635225351E+02  0.26536288794E+02 -0.74208928893E+01  0.45045683035E+02  0.00000000000E+00 0.  1.
         11    1    3    3    0    0 -0.90994128874E+01 -0.71816711344E+01  0.45651071550E+01  0.12458568087E+02  0.51100000000E-03 0. -1.
        -11    1    3    3    0    0 -0.26937351502E+02 -0.19036103059E+02  0.25414785184E+01  0.33082521654E+02  0.51100000000E-03 0.  1.
        -12    1    3    3    0    0  0.40153903862E+00 -0.31851459980E+00  0.31430721587E+00  0.60122722474E+00  0.00000000000E+00 0.  1.
</event>
<event>
 7    1  0.4119299E-008  0.4614232E+02  0.7816164E-02  0.1320468E+00
        -11   -1    0    0    0    0  0.00000000000E+00  0.00000000000E+00  0.45593999997E+02  0.45594000000E+02  0.51100000000E-03 0.  1.
         11   -1    0    0    0    0 -0.00000000000E+00 -0.00000000000E+00 -0.45593999997E+02  0.45594000000E+02  0.51100000000E-03 0. -1.
    9900012    2    1    2    0    0  0.16971776495E+02  0.13770087653E+02 -0.39388538032E+02  0.46142318302E+02  0.10000004932E+02 0.  0.
        -12    1    1    2    0    0 -0.16971776495E+02 -0.13770087653E+02  0.39388538032E+02  0.45045681698E+02  0.00000000000E+00 0.  1.
         11    1    3    3    0    0  0.28765214991E+01  0.36350543660E+01 -0.11000163736E+02  0.11936984487E+02  0.51100000000E-03 0. -1.
        -11    1    3    3    0    0  0.11797775346E+02  0.77018429866E+01 -0.27238859957E+02  0.30666942797E+02  0.51100000000E-03 0.  1.
         12    1    3    3    0    0  0.22974796499E+01  0.24331903003E+01 -0.11495143396E+01  0.35383910180E+01  0.00000000000E+00 0. -1.
</event>
<event>
 7    1  0.4119299E-008  0.4614232E+02  0.7816164E-02  0.1320468E+00
        -11   -1    0    0    0    0  0.00000000000E+00  0.00000000000E+00  0.45593999997E+02  0.45594000000E+02  0.51100000000E-03 0.  1.
         11   -1    0    0    0    0 -0.00000000000E+00 -0.00000000000E+00 -0.45593999997E+02  0.45594000000E+02  0.51100000000E-03 0. -1.
    9900012    2    1    2    0    0 -0.34279118279E+02 -0.28649919219E+02  0.57652265616E+01  0.46142315872E+02  0.99999827746E+01 0.  0.
        -12    1    1    2    0    0  0.34279118279E+02  0.28649919219E+02 -0.57652265616E+01  0.45045684128E+02  0.00000000000E+00 0.  1.
         11    1    3    3    0    0 -0.60498030228E+01 -0.72445747624E+01 -0.73102532268E+00  0.94666983889E+01  0.51100000000E-03 0. -1.
        -11    1    3    3    0    0 -0.11975611608E+02 -0.13242498608E+02  0.42114334101E+01  0.18344351022E+02  0.51100000000E-03 0.  1.
        -12    1    3    3    0    0 -0.16253703648E+02 -0.81628458485E+01  0.22848184741E+01  0.18331266462E+02  0.00000000000E+00 0.  1.
</event>
<event>
 7    1  0.4119299E-008  0.4614232E+02  0.7816164E-02  0.1320468E+00
        -11   -1    0    0    0    0  0.00000000000E+00  0.00000000000E+00  0.45593999997E+02  0.45594000000E+02  0.51100000000E-03 0. -1.
         11   -1    0    0    0    0 -0.00000000000E+00 -0.00000000000E+00 -0.45593999997E+02  0.45594000000E+02  0.51100000000E-03 0.  1.
    9900012    2    1    2    0    0  0.11467421927E+02  0.92351244280E+01  0.42571400832E+02  0.46142318102E+02  0.10000003112E+02 0.  0.
        -12    1    1    2    0    0 -0.11467421927E+02 -0.92351244280E+01 -0.42571400832E+02  0.45045681898E+02  0.00000000000E+00 0.  1.
         11    1    3    3    0    0  0.11250474732E+02  0.62699674441E+01  0.34044574719E+02  0.36399433258E+02  0.51100000000E-03 0. -1.
        -11    1    3    3    0    0 -0.18812770454E+00  0.33594273867E+01  0.85384541364E+01  0.91774911442E+01  0.51100000000E-03 0.  1.
        -12    1    3    3    0    0  0.40507489971E+00 -0.39427040291E+00 -0.11628024046E-01  0.56539369994E+00  0.00000000000E+00 0.  1.
</event>
<event>
 7    1  0.4119299E-008  0.4614231E+02  0.7816164E-02  0.1320468E+00
        -11   -1    0    0    0    0  0.00000000000E+00  0.00000000000E+00  0.45593999997E+02  0.45594000000E+02  0.51100000000E-03 0.  1.
         11   -1    0    0    0    0 -0.00000000000E+00 -0.00000000000E+00 -0.45593999997E+02  0.45594000000E+02  0.51100000000E-03 0. -1.
    9900012    2    1    2    0    0  0.66953272608E+01 -0.34177432071E+02 -0.28569030887E+02  0.46142314347E+02  0.99999688718E+01 0.  0.
        -12    1    1    2    0    0 -0.66953272608E+01  0.34177432071E+02  0.28569030887E+02  0.45045685653E+02  0.00000000000E+00 0.  1.
         11    1    3    3    0    0 -0.18992823570E+01 -0.64205868876E+01 -0.82338939363E+01  0.10612644301E+02  0.51100000000E-03 0.  1.
        -11    1    3    3    0    0  0.19091524416E+01 -0.62576549597E+01 -0.56932474554E+01  0.86727259549E+01  0.51100000000E-03 0. -1.
        -12    1    3    3    0    0  0.66854571762E+01 -0.21499190224E+02 -0.14641889495E+02  0.26856944091E+02  0.00000000000E+00 0.  1.
</event>
<event>
 7    1  0.4119299E-008  0.4614232E+02  0.7816164E-02  0.1320468E+00
        -11   -1    0    0    0    0  0.00000000000E+00  0.00000000000E+00  0.45593999997E+02  0.45594000000E+02  0.51100000000E-03 0.  1.
         11   -1    0    0    0    0 -0.00000000000E+00 -0.00000000000E+00 -0.45593999997E+02  0.45594000000E+02  0.51100000000E-03 0. -1.
    9900012    2    1    2    0    0  0.17573482854E+02  0.21425303752E+02 -0.35513977374E+02  0.46142317306E+02  0.99999958482E+01 0.  0.
        -12    1    1    2    0    0 -0.17573482854E+02 -0.21425303752E+02  0.35513977374E+02  0.45045682694E+02  0.00000000000E+00 0.  1.
         11    1    3    3    0    0  0.13409918197E+02  0.13420703400E+02 -0.20451016432E+02  0.27895972095E+02  0.51100000000E-03 0. -1.
        -11    1    3    3    0    0  0.24915097557E+01  0.65566768671E+00 -0.24625366371E+01  0.35639315268E+01  0.51100000000E-03 0.  1.
        -12    1    3    3    0    0  0.16720549017E+01  0.73489326648E+01 -0.12600424305E+02  0.14682413683E+02  0.00000000000E+00 0.  1.
</event>
<event>
 7    1  0.4119299E-008  0.4614232E+02  0.7816164E-02  0.1320468E+00
        -11   -1    0    0    0    0  0.00000000000E+00  0.00000000000E+00  0.45593999997E+02  0.45594000000E+02  0.51100000000E-03 0.  1.
         11   -1    0    0    0    0 -0.00000000000E+00 -0.00000000000E+00 -0.45593999997E+02  0.45594000000E+02  0.51100000000E-03 0. -1.
    9900012    2    1    2    0    0 -0.64072711034E+01  0.28424656100E+02 -0.34352572830E+02  0.46142318105E+02  0.10000003134E+02 0.  0.
        -12    1    1    2    0    0  0.64072711034E+01 -0.28424656100E+02  0.34352572830E+02  0.45045681895E+02  0.00000000000E+00 0.  1.
         11    1    3    3    0    0 -0.55892335863E+01  0.12284433453E+02 -0.13044571648E+02  0.18769861136E+02  0.51100000000E-03 0. -1.
        -11    1    3    3    0    0  0.66179669069E+00  0.10484832138E+02 -0.93577934033E+01  0.14069043232E+02  0.51100000000E-03 0.  1.
         12    1    3    3    0    0 -0.14798342078E+01  0.56553905083E+01 -0.11950207778E+02  0.13303413736E+02  0.00000000000E+00 0. -1.
</event>
<event>
 7    1  0.4119299E-008  0.4614231E+02  0.7816164E-02  0.1320468E+00
        -11   -1    0    0    0    0  0.00000000000E+00  0.00000000000E+00  0.45593999997E+02  0.45594000000E+02  0.51100000000E-03 0.  1.
         11   -1    0    0    0    0 -0.00000000000E+00 -0.00000000000E+00 -0.45593999997E+02  0.45594000000E+02  0.51100000000E-03 0. -1.
    9900012    2    1    2    0    0 -0.44369993600E+02 -0.22783154976E+01 -0.74314829293E+01  0.46142312170E+02  0.99999490133E+01 0.  0.
        -12    1    1    2    0    0  0.44369993600E+02  0.22783154976E+01  0.74314829293E+01  0.45045687830E+02  0.00000000000E+00 0.  1.
         11    1    3    3    0    0 -0.74319625887E+01 -0.20375056408E+01 -0.25413551621E+00  0.77103879460E+01  0.51100000000E-03 0. -1.
        -11    1    3    3    0    0 -0.20793676800E+02 -0.79115985279E+00 -0.13326167984E+00  0.20809149135E+02  0.51100000000E-03 0.  1.
        -12    1    3    3    0    0 -0.16144354211E+02  0.55034999598E+00 -0.70440857333E+01  0.17622775089E+02  0.00000000000E+00 0.  1.
</event>
<event>
 7    1  0.4119299E-008  0.4614232E+02  0.7816164E-02  0.1320468E+00
        -11   -1    0    0    0    0  0.00000000000E+00  0.00000000000E+00  0.45593999997E+02  0.45594000000E+02  0.51100000000E-03 0.  1.
         11   -1    0    0    0    0 -0.00000000000E+00 -0.00000000000E+00 -0.45593999997E+02  0.45594000000E+02  0.51100000000E-03 0. -1.
    9900012    2    1    2    0    0  0.33434956278E+02 -0.17272829720E+02 -0.24756141122E+02  0.46142317953E+02  0.10000001749E+02 0.  0.
        -12    1    1    2    0    0 -0.33434956278E+02  0.17272829720E+02  0.24756141122E+02  0.45045682047E+02  0.00000000000E+00 0.  1.
         11    1    3    3    0    0  0.38771786924E+01  0.37355385470E+00 -0.37023896390E+01  0.53739879415E+01  0.51100000000E-03 0. -1.
        -11    1    3    3    0    0  0.49794826025E+00 -0.37777293686E+00 -0.17118124557E+01  0.18223520534E+01  0.51100000000E-03 0.  1.
        -12    1    3    3    0    0  0.29059829325E+02 -0.17268610638E+02 -0.19341939028E+02  0.38945977958E+02  0.00000000000E+00 0.  1.
</event>
<event>
 7    1  0.4119299E-008  0.4614232E+02  0.7816164E-02  0.1320468E+00
        -11   -1    0    0    0    0  0.00000000000E+00  0.00000000000E+00  0.45593999997E+02  0.45594000000E+02  0.51100000000E-03 0.  1.
         11   -1    0    0    0    0 -0.00000000000E+00 -0.00000000000E+00 -0.45593999997E+02  0.45594000000E+02  0.51100000000E-03 0. -1.
    9900012    2    1    2    0    0 -0.45254659036E+00 -0.20083726799E+02 -0.40318142754E+02  0.46142317458E+02  0.99999972335E+01 0.  0.
        -12    1    1    2    0    0  0.45254659036E+00  0.20083726799E+02  0.40318142754E+02  0.45045682542E+02  0.00000000000E+00 0.  1.
         11    1    3    3    0    0  0.24897836324E+01 -0.13053551260E+02 -0.28511180030E+02  0.31456026609E+02  0.51100000000E-03 0. -1.
        -11    1    3    3    0    0 -0.30612348643E+01 -0.47353200968E+01 -0.51230871846E+01  0.76184275199E+01  0.51100000000E-03 0.  1.
        -12    1    3    3    0    0  0.11890464152E+00 -0.22948554429E+01 -0.66838755390E+01  0.70678633291E+01  0.00000000000E+00 0.  1.
</event>
<event>
 7    1  0.4119299E-008  0.4614232E+02  0.7816164E-02  0.1320468E+00
        -11   -1    0    0    0    0  0.00000000000E+00  0.00000000000E+00  0.45593999997E+02  0.45594000000E+02  0.51100000000E-03 0.  1.
         11   -1    0    0    0    0 -0.00000000000E+00 -0.00000000000E+00 -0.45593999997E+02  0.45594000000E+02  0.51100000000E-03 0. -1.
    9900012    2    1    2    0    0 -0.37194057518E+02  0.23256464879E+02 -0.10239741824E+02  0.46142318898E+02  0.10000010366E+02 0.  0.
        -12    1    1    2    0    0  0.37194057518E+02 -0.23256464879E+02  0.10239741824E+02  0.45045681102E+02  0.00000000000E+00 0.  1.
         11    1    3    3    0    0 -0.22616344558E+02  0.16351701838E+02 -0.77168027418E+01  0.28955590807E+02  0.51100000000E-03 0. -1.
        -11    1    3    3    0    0 -0.54161087048E+01  0.10749754962E+01 -0.30625026281E+01  0.63141688628E+01  0.51100000000E-03 0.  1.
         12    1    3    3    0    0 -0.91616042554E+01  0.58297875448E+01  0.53956354567E+00  0.10872559228E+02  0.00000000000E+00 0. -1.
</event>
<event>
 7    1  0.4119299E-008  0.4614232E+02  0.7816164E-02  0.1320468E+00
        -11   -1    0    0    0    0  0.00000000000E+00  0.00000000000E+00  0.45593999997E+02  0.45594000000E+02  0.51100000000E-03 0.  1.
         11   -1    0    0    0    0 -0.00000000000E+00 -0.00000000000E+00 -0.45593999997E+02  0.45594000000E+02  0.51100000000E-03 0. -1.
    9900012    2    1    2    0    0  0.11549301599E+02  0.42404284105E+02 -0.98794556609E+01  0.46142319607E+02  0.10000016835E+02 0.  0.
        -12    1    1    2    0    0 -0.11549301599E+02 -0.42404284105E+02  0.98794556609E+01  0.45045680393E+02  0.00000000000E+00 0.  1.
         11    1    3    3    0    0  0.39366523828E+01  0.27413775257E+02 -0.88242254623E+01  0.29066806861E+02  0.51100000000E-03 0. -1.
        -11    1    3    3    0    0  0.32266007330E+01  0.89622973956E+01  0.13344652409E+00  0.95263600149E+01  0.51100000000E-03 0.  1.
         12    1    3    3    0    0  0.43860484832E+01  0.60282114526E+01 -0.11886767227E+01  0.75491527317E+01  0.00000000000E+00 0. -1.
</event>
<event>
 7    1  0.4119299E-008  0.4614232E+02  0.7816164E-02  0.1320468E+00
        -11   -1    0    0    0    0  0.00000000000E+00  0.00000000000E+00  0.45593999997E+02  0.45594000000E+02  0.51100000000E-03 0.  1.
         11   -1    0    0    0    0 -0.00000000000E+00 -0.00000000000E+00 -0.45593999997E+02  0.45594000000E+02  0.51100000000E-03 0. -1.
    9900012    2    1    2    0    0 -0.30809774967E+02 -0.46927598771E+01 -0.32524595241E+02  0.46142317361E+02  0.99999963546E+01 0.  0.
        -12    1    1    2    0    0  0.30809774967E+02  0.46927598771E+01  0.32524595241E+02  0.45045682639E+02  0.00000000000E+00 0.  1.
         11    1    3    3    0    0 -0.16899922704E+02 -0.60763790304E+01 -0.19902179220E+02  0.26807209991E+02  0.51100000000E-03 0. -1.
        -11    1    3    3    0    0 -0.77379578500E+01  0.26133708275E+01 -0.55854880717E+01  0.98946134857E+01  0.51100000000E-03 0.  1.
        -12    1    3    3    0    0 -0.61718944129E+01 -0.12297516742E+01 -0.70369279491E+01  0.94404938846E+01  0.00000000000E+00 0.  1.
</event>
<event>
 7    1  0.4119299E-008  0.4614232E+02  0.7816164E-02  0.1320468E+00
        -11   -1    0    0    0    0  0.00000000000E+00  0.00000000000E+00  0.45593999997E+02  0.45594000000E+02  0.51100000000E-03 0.  1.
         11   -1    0    0    0    0 -0.00000000000E+00 -0.00000000000E+00 -0.45593999997E+02  0.45594000000E+02  0.51100000000E-03 0. -1.
    9900012    2    1    2    0    0  0.42116519721E+02  0.14113733184E+02  0.74909780197E+01  0.46142318193E+02  0.10000003937E+02 0.  0.
        -12    1    1    2    0    0 -0.42116519721E+02 -0.14113733184E+02 -0.74909780197E+01  0.45045681807E+02  0.00000000000E+00 0.  1.
         11    1    3    3    0    0  0.31379342511E+01  0.37847578520E+00 -0.15387740806E+01  0.35153522180E+01  0.51100000000E-03 0.  1.
        -11    1    3    3    0    0  0.11512676681E+02  0.42713997825E+01  0.26300318662E+00  0.12282334933E+02  0.51100000000E-03 0. -1.
        -12    1    3    3    0    0  0.27465908788E+02  0.94638576159E+01  0.87667489138E+01  0.30344631042E+02  0.00000000000E+00 0.  1.
</event>
<event>
 7    1  0.4119299E-008  0.4614232E+02  0.7816164E-02  0.1320468E+00
        -11   -1    0    0    0    0  0.00000000000E+00  0.00000000000E+00  0.45593999997E+02  0.45594000000E+02  0.51100000000E-03 0.  1.
         11   -1    0    0    0    0 -0.00000000000E+00 -0.00000000000E+00 -0.45593999997E+02  0.45594000000E+02  0.51100000000E-03 0. -1.
    9900012    2    1    2    0    0  0.44527548117E+02  0.59833972460E+01 -0.32572841009E+01  0.46142317813E+02  0.10000000478E+02 0.  0.
        -12    1    1    2    0    0 -0.44527548117E+02 -0.59833972460E+01  0.32572841009E+01  0.45045682187E+02  0.00000000000E+00 0.  1.
         11    1    3    3    0    0  0.86640949830E+01 -0.16242015341E+00 -0.10189449149E+01  0.87253178269E+01  0.51100000000E-03 0.  1.
        -11    1    3    3    0    0  0.26007044047E+02  0.70524098864E+01 -0.43529495205E+01  0.27295622270E+02  0.51100000000E-03 0. -1.
         12    1    3    3    0    0  0.98564090868E+01 -0.90659248700E+00  0.21146103346E+01  0.10121377717E+02  0.00000000000E+00 0. -1.
</event>
<event>
 7    1  0.4119299E-008  0.4614232E+02  0.7816164E-02  0.1320468E+00
        -11   -1    0    0    0    0  0.00000000000E+00  0.00000000000E+00  0.45593999997E+02  0.45594000000E+02  0.51100000000E-03 0.  1.
         11   -1    0    0    0    0 -0.00000000000E+00 -0.00000000000E+00 -0.45593999997E+02  0.45594000000E+02  0.51100000000E-03 0. -1.
    9900012    2    1    2    0    0 -0.40226622086E+02  0.19245166727E+02  0.63683335412E+01  0.46142320531E+02  0.10000025254E+02 0.  0.
        -12    1    1    2    0    0  0.40226622086E+02 -0.19245166727E+02 -0.63683335412E+01  0.45045679469E+02  0.00000000000E+00 0.  1.
         11    1    3    3    0    0 -0.10355808292E+02  0.25992814057E+01  0.25567381429E+01  0.10978886073E+02  0.51100000000E-03 0. -1.
        -11    1    3    3    0    0 -0.76534177573E+00  0.23236228550E+01  0.85063278651E+00  0.25900864087E+01  0.51100000000E-03 0.  1.
        -12    1    3    3    0    0 -0.29105472018E+02  0.14322262466E+02  0.29609626117E+01  0.32573348049E+02  0.00000000000E+00 0.  1.
</event>
<event>
 7    1  0.4119299E-008  0.4614232E+02  0.7816164E-02  0.1320468E+00
        -11   -1    0    0    0    0  0.00000000000E+00  0.00000000000E+00  0.45593999997E+02  0.45594000000E+02  0.51100000000E-03 0.  1.
         11   -1    0    0    0    0 -0.00000000000E+00 -0.00000000000E+00 -0.45593999997E+02  0.45594000000E+02  0.51100000000E-03 0. -1.
    9900012    2    1    2    0    0 -0.61769635892E+01 -0.10743812181E+02 -0.43307377860E+02  0.46142319226E+02  0.10000013354E+02 0.  0.
        -12    1    1    2    0    0  0.61769635892E+01  0.10743812181E+02  0.43307377860E+02  0.45045680774E+02  0.00000000000E+00 0.  1.
         11    1    3    3    0    0 -0.29614529809E+01 -0.91117475268E+01 -0.22434470010E+02  0.24394663179E+02  0.51100000000E-03 0. -1.
        -11    1    3    3    0    0 -0.18381350016E+00  0.13329982730E+01 -0.97744785378E+01  0.98666662427E+01  0.51100000000E-03 0.  1.
        -12    1    3    3    0    0 -0.30316971082E+01 -0.29650629271E+01 -0.11098429312E+02  0.11880989803E+02  0.00000000000E+00 0.  1.
</event>
<event>
 7    1  0.4119299E-008  0.4614232E+02  0.7816164E-02  0.1320468E+00
        -11   -1    0    0    0    0  0.00000000000E+00  0.00000000000E+00  0.45593999997E+02  0.45594000000E+02  0.51100000000E-03 0.  1.
         11   -1    0    0    0    0 -0.00000000000E+00 -0.00000000000E+00 -0.45593999997E+02  0.45594000000E+02  0.51100000000E-03 0. -1.
    9900012    2    1    2    0    0  0.84337094390E+00 -0.16966312583E+02 -0.41719857154E+02  0.46142317430E+02  0.99999969820E+01 0.  0.
        -12    1    1    2    0    0 -0.84337094390E+00  0.16966312583E+02  0.41719857154E+02  0.45045682570E+02  0.00000000000E+00 0.  1.
         11    1    3    3    0    0 -0.30589147229E+00 -0.31125359499E+01 -0.13084569677E+02  0.13453156267E+02  0.51100000000E-03 0. -1.
        -11    1    3    3    0    0  0.20912113348E+01 -0.13178767177E+02 -0.20424454455E+02  0.24396954917E+02  0.51100000000E-03 0.  1.
         12    1    3    3    0    0 -0.94194891862E+00 -0.67500945613E+00 -0.82108330216E+01  0.82922062469E+01  0.00000000000E+00 0. -1.
</event>
<event>
 7    1  0.4119299E-008  0.4614231E+02  0.7816164E-02  0.1320468E+00
        -11   -1    0    0    0    0  0.00000000000E+00  0.00000000000E+00  0.45593999997E+02  0.45594000000E+02  0.51100000000E-03 0. -1.
         11   -1    0    0    0    0 -0.00000000000E+00 -0.00000000000E+00 -0.45593999997E+02  0.45594000000E+02  0.51100000000E-03 0.  1.
    9900012    2    1    2    0    0  0.24373173424E+02 -0.25312990255E+02  0.28183595934E+02  0.46142310549E+02  0.99999342298E+01 0.  0.
        -12    1    1    2    0    0 -0.24373173424E+02  0.25312990255E+02 -0.28183595934E+02  0.45045689451E+02  0.00000000000E+00 0.  1.
         11    1    3    3    0    0  0.36749258402E+00 -0.63716237734E+00 -0.22926534928E+00  0.77044763347E+00  0.51100000000E-03 0. -1.
        -11    1    3    3    0    0  0.60128276944E+01 -0.91896368613E+01  0.13222550533E+02  0.17188349699E+02  0.51100000000E-03 0.  1.
         12    1    3    3    0    0  0.17992853145E+02 -0.15486191016E+02  0.15190310751E+02  0.28183513216E+02  0.00000000000E+00 0. -1.
</event>
<event>
 7    1  0.4119299E-008  0.4614232E+02  0.7816164E-02  0.1320468E+00
        -11   -1    0    0    0    0  0.00000000000E+00  0.00000000000E+00  0.45593999997E+02  0.45594000000E+02  0.51100000000E-03 0.  1.
         11   -1    0    0    0    0 -0.00000000000E+00 -0.00000000000E+00 -0.45593999997E+02  0.45594000000E+02  0.51100000000E-03 0. -1.
    9900012    2    1    2    0    0  0.33316314611E+02  0.18620583192E+02 -0.23925103073E+02  0.46142317691E+02  0.99999993588E+01 0.  0.
        -12    1    1    2    0    0 -0.33316314611E+02 -0.18620583192E+02  0.23925103073E+02  0.45045682309E+02  0.00000000000E+00 0.  1.
         11    1    3    3    0    0  0.23427721251E+01  0.13765653696E+01 -0.39432160393E+01  0.47887854871E+01  0.51100000000E-03 0. -1.
        -11    1    3    3    0    0  0.14954591055E+02  0.90652617979E+01 -0.13991877325E+02  0.22396236211E+02  0.51100000000E-03 0.  1.
        -12    1    3    3    0    0  0.16018951430E+02  0.81787560248E+01 -0.59900097085E+01  0.18957295992E+02  0.00000000000E+00 0.  1.
</event>
<event>
 7    1  0.4119299E-008  0.4614232E+02  0.7816164E-02  0.1320468E+00
        -11   -1    0    0    0    0  0.00000000000E+00  0.00000000000E+00  0.45593999997E+02  0.45594000000E+02  0.51100000000E-03 0.  1.
         11   -1    0    0    0    0 -0.00000000000E+00 -0.00000000000E+00 -0.45593999997E+02  0.45594000000E+02  0.51100000000E-03 0. -1.
    9900012    2    1    2    0    0  0.12970867532E+02 -0.13575324718E+02 -0.40946070968E+02  0.46142316817E+02  0.99999913906E+01 0.  0.
        -12    1    1    2    0    0 -0.12970867532E+02  0.13575324718E+02  0.40946070968E+02  0.45045683183E+02  0.00000000000E+00 0.  1.
         11    1    3    3    0    0  0.37472335903E+01 -0.32436164177E+01 -0.64321340376E+01  0.81200465260E+01  0.51100000000E-03 0. -1.
        -11    1    3    3    0    0 -0.73629511479E+00 -0.37810789333E+01 -0.61741679012E+01  0.72772960589E+01  0.51100000000E-03 0.  1.
         12    1    3    3    0    0  0.99599290562E+01 -0.65506293665E+01 -0.28339769029E+02  0.30744974232E+02  0.00000000000E+00 0. -1.
</event>
<event>
 7    1  0.4314591E-008  0.4614232E+02  0.7816164E-02  0.1320468E+00
        -11   -1    0    0    0    0  0.00000000000E+00  0.00000000000E+00  0.45593999997E+02  0.45594000000E+02  0.51100000000E-03 0. -1.
         11   -1    0    0    0    0 -0.00000000000E+00 -0.00000000000E+00 -0.45593999997E+02  0.45594000000E+02  0.51100000000E-03 0.  1.
    9900012    2    1    2    0    0  0.55089821323E+01  0.41881621517E+02  0.15642715301E+02  0.46142316001E+02  0.99999839469E+01 0.  0.
        -12    1    1    2    0    0 -0.55089821323E+01 -0.41881621517E+02 -0.15642715301E+02  0.45045683999E+02  0.00000000000E+00 0.  1.
         11    1    3    3    0    0  0.10250133357E+00  0.23963552767E+02  0.65848021862E+01  0.24852001687E+02  0.51100000000E-03 0. -1.
        -11    1    3    3    0    0  0.48418136479E+00  0.95191419641E+01  0.45831915697E+01  0.10576111788E+02  0.51100000000E-03 0.  1.
        -12    1    3    3    0    0  0.49222994340E+01  0.83989267853E+01  0.44747215446E+01  0.10714202526E+02  0.00000000000E+00 0.  1.
</event>
<event>
 7    1  0.4119299E-008  0.4614232E+02  0.7816164E-02  0.1320468E+00
        -11   -1    0    0    0    0  0.00000000000E+00  0.00000000000E+00  0.45593999997E+02  0.45594000000E+02  0.51100000000E-03 0.  1.
         11   -1    0    0    0    0 -0.00000000000E+00 -0.00000000000E+00 -0.45593999997E+02  0.45594000000E+02  0.51100000000E-03 0. -1.
    9900012    2    1    2    0    0  0.26282418035E+01 -0.16922575802E+02 -0.41663320227E+02  0.46142317864E+02  0.10000000940E+02 0.  0.
        -12    1    1    2    0    0 -0.26282418035E+01  0.16922575802E+02  0.41663320227E+02  0.45045682136E+02  0.00000000000E+00 0.  1.
         11    1    3    3    0    0  0.71343828775E+00  0.77797280389E-01 -0.65577131956E+00  0.97215373885E+00  0.51100000000E-03 0. -1.
        -11    1    3    3    0    0  0.14721983267E+01 -0.49698124510E+01 -0.49937730616E+01  0.71975116091E+01  0.51100000000E-03 0.  1.
        -12    1    3    3    0    0  0.44260518902E+00 -0.12030560631E+02 -0.36013775846E+02  0.37972652516E+02  0.00000000000E+00 0.  1.
</event>
<event>
 7    1  0.4119299E-008  0.4614232E+02  0.7816164E-02  0.1320468E+00
        -11   -1    0    0    0    0  0.00000000000E+00  0.00000000000E+00  0.45593999997E+02  0.45594000000E+02  0.51100000000E-03 0.  1.
         11   -1    0    0    0    0 -0.00000000000E+00 -0.00000000000E+00 -0.45593999997E+02  0.45594000000E+02  0.51100000000E-03 0. -1.
    9900012    2    1    2    0    0 -0.59507882857E+01  0.42976008760E+02 -0.12114637218E+02  0.46142316022E+02  0.99999841386E+01 0.  0.
        -12    1    1    2    0    0  0.59507882857E+01 -0.42976008760E+02  0.12114637218E+02  0.45045683978E+02  0.00000000000E+00 0.  1.
         11    1    3    3    0    0  0.70074772415E+00  0.10886371904E+01  0.14124952983E+00  0.13023555567E+01  0.51100000000E-03 0. -1.
        -11    1    3    3    0    0 -0.13479489484E+01  0.79582668039E+01  0.77701375851E+00  0.81089288770E+01  0.51100000000E-03 0.  1.
         12    1    3    3    0    0 -0.53035870614E+01  0.33929104765E+02 -0.13032900507E+02  0.36731031588E+02  0.00000000000E+00 0. -1.
</event>
<event>
 7    1  0.4119299E-008  0.4614232E+02  0.7816164E-02  0.1320468E+00
        -11   -1    0    0    0    0  0.00000000000E+00  0.00000000000E+00  0.45593999997E+02  0.45594000000E+02  0.51100000000E-03 0.  1.
         11   -1    0    0    0    0 -0.00000000000E+00 -0.00000000000E+00 -0.45593999997E+02  0.45594000000E+02  0.51100000000E-03 0. -1.
    9900012    2    1    2    0    0 -0.13360741664E+02 -0.84028841942E+01 -0.42189993770E+02  0.46142318132E+02  0.10000003383E+02 0.  0.
        -12    1    1    2    0    0  0.13360741664E+02  0.84028841942E+01  0.42189993770E+02  0.45045681868E+02  0.00000000000E+00 0.  1.
         11    1    3    3    0    0 -0.26344245536E+00  0.15751103403E+01 -0.33350573314E+01  0.36976995790E+01  0.51100000000E-03 0.  1.
        -11    1    3    3    0    0 -0.51930586180E+01 -0.45836949253E+01 -0.21975061147E+02  0.23040864343E+02  0.51100000000E-03 0. -1.
        -12    1    3    3    0    0 -0.79042405910E+01 -0.53942996091E+01 -0.16879875292E+02  0.19403754210E+02  0.00000000000E+00 0.  1.
</event>
<event>
 7    1  0.4119299E-008  0.4614232E+02  0.7816164E-02  0.1320468E+00
        -11   -1    0    0    0    0  0.00000000000E+00  0.00000000000E+00  0.45593999997E+02  0.45594000000E+02  0.51100000000E-03 0.  1.
         11   -1    0    0    0    0 -0.00000000000E+00 -0.00000000000E+00 -0.45593999997E+02  0.45594000000E+02  0.51100000000E-03 0. -1.
    9900012    2    1    2    0    0  0.33394139509E+01  0.16232254216E+02 -0.41886461977E+02  0.46142318083E+02  0.10000002932E+02 0.  0.
        -12    1    1    2    0    0 -0.33394139509E+01 -0.16232254216E+02  0.41886461977E+02  0.45045681917E+02  0.00000000000E+00 0.  1.
         11    1    3    3    0    0 -0.11749224618E+01  0.73259010322E+01 -0.17053452894E+02  0.18597567706E+02  0.51100000000E-03 0. -1.
        -11    1    3    3    0    0  0.37946004004E+00  0.48011998644E+01 -0.17652074984E+02  0.18297302030E+02  0.51100000000E-03 0.  1.
        -12    1    3    3    0    0  0.41348763727E+01  0.41051533192E+01 -0.71809340992E+01  0.92474483469E+01  0.00000000000E+00 0.  1.
</event>
<event>
 7    1  0.4119299E-008  0.4614232E+02  0.7816164E-02  0.1320468E+00
        -11   -1    0    0    0    0  0.00000000000E+00  0.00000000000E+00  0.45593999997E+02  0.45594000000E+02  0.51100000000E-03 0. -1.
         11   -1    0    0    0    0 -0.00000000000E+00 -0.00000000000E+00 -0.45593999997E+02  0.45594000000E+02  0.51100000000E-03 0.  1.
    9900012    2    1    2    0    0 -0.54108768097E+01  0.38945720793E+02  0.21978778618E+02  0.46142318015E+02  0.10000002318E+02 0.  0.
        -12    1    1    2    0    0  0.54108768097E+01 -0.38945720793E+02 -0.21978778618E+02  0.45045681985E+02  0.00000000000E+00 0.  1.
         11    1    3    3    0    0  0.17621923613E+01  0.15379705789E+02  0.89328806049E+01  0.17872801354E+02  0.51100000000E-03 0. -1.
        -11    1    3    3    0    0 -0.36849145170E+01  0.76175532569E+01  0.65430230172E+01  0.10696581841E+02  0.51100000000E-03 0.  1.
         12    1    3    3    0    0 -0.34881546540E+01  0.15948461747E+02  0.65028749960E+01  0.17572934820E+02  0.00000000000E+00 0. -1.
</event>
<event>
 7    1  0.4119299E-008  0.4614232E+02  0.7816164E-02  0.1320468E+00
        -11   -1    0    0    0    0  0.00000000000E+00  0.00000000000E+00  0.45593999997E+02  0.45594000000E+02  0.51100000000E-03 0.  1.
         11   -1    0    0    0    0 -0.00000000000E+00 -0.00000000000E+00 -0.45593999997E+02  0.45594000000E+02  0.51100000000E-03 0. -1.
    9900012    2    1    2    0    0 -0.18992671995E+01 -0.20864597533E+01 -0.44957233133E+02  0.46142319395E+02  0.10000014898E+02 0.  0.
        -12    1    1    2    0    0  0.18992671995E+01  0.20864597533E+01  0.44957233133E+02  0.45045680605E+02  0.00000000000E+00 0.  1.
         11    1    3    3    0    0 -0.54970390288E+01 -0.15711573684E+01 -0.31146992405E+02  0.31667350848E+02  0.51100000000E-03 0. -1.
        -11    1    3    3    0    0  0.11745537812E+00 -0.60550420044E+00 -0.43681142680E+01  0.44114457519E+01  0.51100000000E-03 0.  1.
         12    1    3    3    0    0  0.34803164512E+01  0.90201815520E-01 -0.94421264600E+01  0.10063522795E+02  0.00000000000E+00 0. -1.
</event>
<event>
 7    1  0.4119299E-008  0.4614232E+02  0.7816164E-02  0.1320468E+00
        -11   -1    0    0    0    0  0.00000000000E+00  0.00000000000E+00  0.45593999997E+02  0.45594000000E+02  0.51100000000E-03 0. -1.
         11   -1    0    0    0    0 -0.00000000000E+00 -0.00000000000E+00 -0.45593999997E+02  0.45594000000E+02  0.51100000000E-03 0.  1.
    9900012    2    1    2    0    0 -0.79854523255E+01 -0.23529732763E+02  0.37572564615E+02  0.46142318914E+02  0.10000010515E+02 0.  0.
        -12    1    1    2    0    0  0.79854523255E+01  0.23529732763E+02 -0.37572564615E+02  0.45045681086E+02  0.00000000000E+00 0.  1.
         11    1    3    3    0    0  0.17497283468E+01 -0.50510370739E+01  0.81704251610E+01  0.97637273816E+01  0.51100000000E-03 0.  1.
        -11    1    3    3    0    0 -0.20486137885E+01 -0.92968890960E+00  0.35094711184E+01  0.41686361937E+01  0.51100000000E-03 0. -1.
        -12    1    3    3    0    0 -0.76865668837E+01 -0.17549006779E+02  0.25892668336E+02  0.32209955339E+02  0.00000000000E+00 0.  1.
</event>
<event>
 7    1  0.4119299E-008  0.4614232E+02  0.7816164E-02  0.1320468E+00
        -11   -1    0    0    0    0  0.00000000000E+00  0.00000000000E+00  0.45593999997E+02  0.45594000000E+02  0.51100000000E-03 0.  1.
         11   -1    0    0    0    0 -0.00000000000E+00 -0.00000000000E+00 -0.45593999997E+02  0.45594000000E+02  0.51100000000E-03 0. -1.
    9900012    2    1    2    0    0  0.16621321840E+02 -0.82544281885E+01 -0.41045215916E+02  0.46142315700E+02  0.99999812071E+01 0.  0.
        -12    1    1    2    0    0 -0.16621321840E+02  0.82544281885E+01  0.41045215916E+02  0.45045684300E+02  0.00000000000E+00 0.  1.
         11    1    3    3    0    0  0.40146986196E+01 -0.29883866968E+01 -0.14633038890E+02  0.15465254200E+02  0.51100000000E-03 0. -1.
        -11    1    3    3    0    0  0.45866149526E+01  0.11202706871E+01 -0.46791652740E+01  0.66473025400E+01  0.51100000000E-03 0.  1.
        -12    1    3    3    0    0  0.80200082677E+01 -0.63863121788E+01 -0.21733011752E+02  0.24029758960E+02  0.00000000000E+00 0.  1.
</event>
<event>
 7    1  0.4119299E-008  0.4614232E+02  0.7816164E-02  0.1320468E+00
        -11   -1    0    0    0    0  0.00000000000E+00  0.00000000000E+00  0.45593999997E+02  0.45594000000E+02  0.51100000000E-03 0.  1.
         11   -1    0    0    0    0 -0.00000000000E+00 -0.00000000000E+00 -0.45593999997E+02  0.45594000000E+02  0.51100000000E-03 0. -1.
    9900012    2    1    2    0    0 -0.17542335165E+02 -0.40182684113E+02 -0.10331111416E+02  0.46142317758E+02  0.99999999709E+01 0.  0.
        -12    1    1    2    0    0  0.17542335165E+02  0.40182684113E+02  0.10331111416E+02  0.45045682242E+02  0.00000000000E+00 0.  1.
         11    1    3    3    0    0 -0.34916085768E+00 -0.97348960020E+00 -0.11224324691E+01  0.15262536536E+01  0.51100000000E-03 0. -1.
        -11    1    3    3    0    0  0.56458316040E+00 -0.53706849091E+01 -0.17775111668E+01  0.56852930221E+01  0.51100000000E-03 0.  1.
         12    1    3    3    0    0 -0.17757757468E+02 -0.33838509604E+02 -0.74311677797E+01  0.38930771082E+02  0.00000000000E+00 0. -1.
</event>
<event>
 7    1  0.4119299E-008  0.4614232E+02  0.7816164E-02  0.1320468E+00
        -11   -1    0    0    0    0  0.00000000000E+00  0.00000000000E+00  0.45593999997E+02  0.45594000000E+02  0.51100000000E-03 0.  1.
         11   -1    0    0    0    0 -0.00000000000E+00 -0.00000000000E+00 -0.45593999997E+02  0.45594000000E+02  0.51100000000E-03 0. -1.
    9900012    2    1    2    0    0 -0.29575370614E+02 -0.15446044131E+02 -0.30262693196E+02  0.46142318457E+02  0.10000006341E+02 0.  0.
        -12    1    1    2    0    0  0.29575370614E+02  0.15446044131E+02  0.30262693196E+02  0.45045681543E+02  0.00000000000E+00 0.  1.
         11    1    3    3    0    0 -0.19788476173E+02 -0.12004196284E+02 -0.19395933996E+02  0.30197463031E+02  0.51100000000E-03 0. -1.
        -11    1    3    3    0    0 -0.77626352301E+01 -0.38204393603E+01 -0.56420572704E+01  0.10328943466E+02  0.51100000000E-03 0.  1.
        -12    1    3    3    0    0 -0.20242592109E+01  0.37859151313E+00 -0.52247019290E+01  0.56159119592E+01  0.00000000000E+00 0.  1.
</event>
<event>
 7    1  0.4119299E-008  0.4614232E+02  0.7816164E-02  0.1320468E+00
        -11   -1    0    0    0    0  0.00000000000E+00  0.00000000000E+00  0.45593999997E+02  0.45594000000E+02  0.51100000000E-03 0.  1.
         11   -1    0    0    0    0 -0.00000000000E+00 -0.00000000000E+00 -0.45593999997E+02  0.45594000000E+02  0.51100000000E-03 0. -1.
    9900012    2    1    2    0    0 -0.12881569359E+02  0.79740272517E+01 -0.42421616193E+02  0.46142318074E+02  0.10000002854E+02 0.  0.
        -12    1    1    2    0    0  0.12881569359E+02 -0.79740272517E+01  0.42421616193E+02  0.45045681926E+02  0.00000000000E+00 0.  1.
         11    1    3    3    0    0 -0.38442027016E+00  0.37560197099E+01 -0.11598376272E+02  0.12197450366E+02  0.51100000000E-03 0. -1.
        -11    1    3    3    0    0 -0.22833120367E+01 -0.77333257417E+00 -0.27491692475E+01  0.36564311753E+01  0.51100000000E-03 0.  1.
         12    1    3    3    0    0 -0.10213837052E+02  0.49913401160E+01 -0.28074070673E+02  0.30288436533E+02  0.00000000000E+00 0. -1.
</event>
<event>
 7    1  0.4119299E-008  0.4614232E+02  0.7816164E-02  0.1320468E+00
        -11   -1    0    0    0    0  0.00000000000E+00  0.00000000000E+00  0.45593999997E+02  0.45594000000E+02  0.51100000000E-03 0.  1.
         11   -1    0    0    0    0 -0.00000000000E+00 -0.00000000000E+00 -0.45593999997E+02  0.45594000000E+02  0.51100000000E-03 0. -1.
    9900012    2    1    2    0    0  0.40217235154E+01  0.10049739016E+01 -0.44854533206E+02  0.46142318945E+02  0.10000010800E+02 0.  0.
        -12    1    1    2    0    0 -0.40217235154E+01 -0.10049739016E+01  0.44854533206E+02  0.45045681055E+02  0.00000000000E+00 0.  1.
         11    1    3    3    0    0 -0.17754591877E+01  0.14853116088E+01 -0.26881976948E+02  0.26981458278E+02  0.51100000000E-03 0.  1.
        -11    1    3    3    0    0  0.21834323538E+01  0.38592029964E+00 -0.11371652035E+02  0.11585800861E+02  0.51100000000E-03 0. -1.
        -12    1    3    3    0    0  0.36137503493E+01 -0.86625800683E+00 -0.66009042231E+01  0.75750598073E+01  0.00000000000E+00 0.  1.
</event>
<event>
 7    1  0.4119299E-008  0.4614232E+02  0.7816164E-02  0.1320468E+00
        -11   -1    0    0    0    0  0.00000000000E+00  0.00000000000E+00  0.45593999997E+02  0.45594000000E+02  0.51100000000E-03 0.  1.
         11   -1    0    0    0    0 -0.00000000000E+00 -0.00000000000E+00 -0.45593999997E+02  0.45594000000E+02  0.51100000000E-03 0. -1.
    9900012    2    1    2    0    0 -0.19777747747E+02  0.12729726885E+02 -0.38417551259E+02  0.46142317663E+02  0.99999991040E+01 0.  0.
        -12    1    1    2    0    0  0.19777747747E+02 -0.12729726885E+02  0.38417551259E+02  0.45045682337E+02  0.00000000000E+00 0.  1.
         11    1    3    3    0    0 -0.82527387134E+01  0.96989493822E+01 -0.16679996861E+02  0.20985700153E+02  0.51100000000E-03 0. -1.
        -11    1    3    3    0    0 -0.25470717373E+01  0.23666317225E+01 -0.42772756464E+01  0.55121327417E+01  0.51100000000E-03 0.  1.
        -12    1    3    3    0    0 -0.89779372963E+01  0.66414578014E+00 -0.17460278752E+02  0.19644484768E+02  0.00000000000E+00 0.  1.
</event>
<event>
 7    1  0.4119299E-008  0.4614232E+02  0.7816164E-02  0.1320468E+00
        -11   -1    0    0    0    0  0.00000000000E+00  0.00000000000E+00  0.45593999997E+02  0.45594000000E+02  0.51100000000E-03 0.  1.
         11   -1    0    0    0    0 -0.00000000000E+00 -0.00000000000E+00 -0.45593999997E+02  0.45594000000E+02  0.51100000000E-03 0. -1.
    9900012    2    1    2    0    0  0.91198007785E+01 -0.58903498343E+01 -0.43717805999E+02  0.46142317091E+02  0.99999938856E+01 0.  0.
        -12    1    1    2    0    0 -0.91198007785E+01  0.58903498343E+01  0.43717805999E+02  0.45045682909E+02  0.00000000000E+00 0.  1.
         11    1    3    3    0    0  0.44338723990E+01 -0.58652382550E+01 -0.30249087574E+02  0.31129849720E+02  0.51100000000E-03 0. -1.
        -11    1    3    3    0    0  0.23626248884E+01 -0.17801971683E+01 -0.32850031876E+01  0.44206724065E+01  0.51100000000E-03 0.  1.
        -12    1    3    3    0    0  0.23233034912E+01  0.17550855891E+01 -0.10183715237E+02  0.10591794964E+02  0.00000000000E+00 0.  1.
</event>
<event>
 7    1  0.4119299E-008  0.4614233E+02  0.7816164E-02  0.1320468E+00
        -11   -1    0    0    0    0  0.00000000000E+00  0.00000000000E+00  0.45593999997E+02  0.45594000000E+02  0.51100000000E-03 0.  1.
         11   -1    0    0    0    0 -0.00000000000E+00 -0.00000000000E+00 -0.45593999997E+02  0.45594000000E+02  0.51100000000E-03 0. -1.
    9900012    2    1    2    0    0  0.27925247835E+02  0.11698888098E+02 -0.33353092962E+02  0.46142331401E+02  0.10000124382E+02 0.  0.
        -12    1    1    2    0    0 -0.27925247835E+02 -0.11698888098E+02  0.33353092962E+02  0.45045668599E+02  0.00000000000E+00 0.  1.
         11    1    3    3    0    0  0.26215367334E+02  0.10452956469E+02 -0.27556212471E+02  0.39444323158E+02  0.51100000000E-03 0. -1.
        -11    1    3    3    0    0  0.19913109481E+01 -0.86628498251E-01 -0.33949401234E+01  0.39368061283E+01  0.51100000000E-03 0.  1.
         12    1    3    3    0    0 -0.28143044752E+00  0.13325601275E+01 -0.24019403673E+01  0.27612021147E+01  0.00000000000E+00 0. -1.
</event>
<event>
 7    1  0.4119299E-008  0.4614231E+02  0.7816164E-02  0.1320468E+00
        -11   -1    0    0    0    0  0.00000000000E+00  0.00000000000E+00  0.45593999997E+02  0.45594000000E+02  0.51100000000E-03 0.  1.
         11   -1    0    0    0    0 -0.00000000000E+00 -0.00000000000E+00 -0.45593999997E+02  0.45594000000E+02  0.51100000000E-03 0. -1.
    9900012    2    1    2    0    0  0.10784530828E+02  0.42130393661E+02  0.11740431240E+02  0.46142313182E+02  0.99999582394E+01 0.  0.
        -12    1    1    2    0    0 -0.10784530828E+02 -0.42130393661E+02 -0.11740431240E+02  0.45045686818E+02  0.00000000000E+00 0.  1.
         11    1    3    3    0    0 -0.23616661378E+00  0.19558178028E+01 -0.88846208414E+00  0.21611022843E+01  0.51100000000E-03 0. -1.
        -11    1    3    3    0    0  0.14683477138E+01  0.15017352221E+02  0.28889475128E+01  0.15363037809E+02  0.51100000000E-03 0.  1.
         12    1    3    3    0    0  0.95523497281E+01  0.25157223638E+02  0.97399458113E+01  0.28618173088E+02  0.00000000000E+00 0. -1.
</event>
<event>
 7    1  0.4119299E-008  0.4614232E+02  0.7816164E-02  0.1320468E+00
        -11   -1    0    0    0    0  0.00000000000E+00  0.00000000000E+00  0.45593999997E+02  0.45594000000E+02  0.51100000000E-03 0. -1.
         11   -1    0    0    0    0 -0.00000000000E+00 -0.00000000000E+00 -0.45593999997E+02  0.45594000000E+02  0.51100000000E-03 0.  1.
    9900012    2    1    2    0    0 -0.13176752349E+02 -0.28787205418E+01  0.42979058254E+02  0.46142320043E+02  0.10000020805E+02 0.  0.
        -12    1    1    2    0    0  0.13176752349E+02  0.28787205418E+01 -0.42979058254E+02  0.45045679957E+02  0.00000000000E+00 0.  1.
         11    1    3    3    0    0 -0.85589182867E+01 -0.42792871799E+01  0.32898529496E+02  0.34261941338E+02  0.51100000000E-03 0. -1.
        -11    1    3    3    0    0 -0.17714624445E+01 -0.55654685078E-01  0.59348460432E+00  0.18690641704E+01  0.51100000000E-03 0.  1.
        -12    1    3    3    0    0 -0.28463716181E+01  0.14562213232E+01  0.94870441537E+01  0.10011314534E+02  0.00000000000E+00 0.  1.
</event>
<event>
 7    1  0.4119299E-008  0.4614232E+02  0.7816164E-02  0.1320468E+00
        -11   -1    0    0    0    0  0.00000000000E+00  0.00000000000E+00  0.45593999997E+02  0.45594000000E+02  0.51100000000E-03 0.  1.
         11   -1    0    0    0    0 -0.00000000000E+00 -0.00000000000E+00 -0.45593999997E+02  0.45594000000E+02  0.51100000000E-03 0. -1.
    9900012    2    1    2    0    0  0.44183853560E+00  0.40378322402E+01 -0.44862167988E+02  0.46142318442E+02  0.10000006208E+02 0.  0.
        -12    1    1    2    0    0 -0.44183853560E+00 -0.40378322402E+01  0.44862167988E+02  0.45045681558E+02  0.00000000000E+00 0.  1.
         11    1    3    3    0    0 -0.14415072867E+01  0.20693934971E+01 -0.22212214024E+02  0.22354927528E+02  0.51100000000E-03 0. -1.
        -11    1    3    3    0    0  0.22013987123E+01 -0.21792573314E+01 -0.90488344690E+01  0.95643465180E+01  0.51100000000E-03 0.  1.
        -12    1    3    3    0    0 -0.31805289001E+00  0.41476960745E+01 -0.13601119495E+02  0.14223044396E+02  0.00000000000E+00 0.  1.
</event>
<event>
 7    1  0.4119299E-008  0.4614232E+02  0.7816164E-02  0.1320468E+00
        -11   -1    0    0    0    0  0.00000000000E+00  0.00000000000E+00  0.45593999997E+02  0.45594000000E+02  0.51100000000E-03 0.  1.
         11   -1    0    0    0    0 -0.00000000000E+00 -0.00000000000E+00 -0.45593999997E+02  0.45594000000E+02  0.51100000000E-03 0. -1.
    9900012    2    1    2    0    0  0.73257610679E+01  0.37400156297E+02 -0.24014058879E+02  0.46142317742E+02  0.99999998256E+01 0.  0.
        -12    1    1    2    0    0 -0.73257610679E+01 -0.37400156297E+02  0.24014058879E+02  0.45045682258E+02  0.00000000000E+00 0.  1.
         11    1    3    3    0    0  0.66036946335E+01  0.21356902522E+02 -0.12806628994E+02  0.25763070752E+02  0.51100000000E-03 0. -1.
        -11    1    3    3    0    0  0.97890020465E+00  0.75851996348E+01 -0.86347879291E+01  0.11534862893E+02  0.51100000000E-03 0.  1.
         12    1    3    3    0    0 -0.25683377028E+00  0.84580541402E+01 -0.25726419563E+01  0.88443840973E+01  0.00000000000E+00 0. -1.
</event>
<event>
 7    1  0.4119299E-008  0.4614232E+02  0.7816164E-02  0.1320468E+00
        -11   -1    0    0    0    0  0.00000000000E+00  0.00000000000E+00  0.45593999997E+02  0.45594000000E+02  0.51100000000E-03 0.  1.
         11   -1    0    0    0    0 -0.00000000000E+00 -0.00000000000E+00 -0.45593999997E+02  0.45594000000E+02  0.51100000000E-03 0. -1.
    9900012    2    1    2    0    0 -0.91815357836E+01  0.22251587184E+02 -0.38074651892E+02  0.46142324866E+02  0.10000064792E+02 0.  0.
        -12    1    1    2    0    0  0.91815357836E+01 -0.22251587184E+02  0.38074651892E+02  0.45045675134E+02  0.00000000000E+00 0.  1.
         11    1    3    3    0    0 -0.46865113776E+01  0.10157047581E+02 -0.15130493757E+02  0.18816504618E+02  0.51100000000E-03 0. -1.
        -11    1    3    3    0    0 -0.33874933126E+01  0.67414821951E+01 -0.63723623674E+01  0.98757124063E+01  0.51100000000E-03 0.  1.
        -12    1    3    3    0    0 -0.11075310934E+01  0.53530574075E+01 -0.16571795768E+02  0.17450107842E+02  0.00000000000E+00 0.  1.
</event>
<event>
 7    1  0.4119299E-008  0.4614232E+02  0.7816164E-02  0.1320468E+00
        -11   -1    0    0    0    0  0.00000000000E+00  0.00000000000E+00  0.45593999997E+02  0.45594000000E+02  0.51100000000E-03 0.  1.
         11   -1    0    0    0    0 -0.00000000000E+00 -0.00000000000E+00 -0.45593999997E+02  0.45594000000E+02  0.51100000000E-03 0. -1.
    9900012    2    1    2    0    0 -0.35270978679E+02  0.62308328850E+01 -0.27317544890E+02  0.46142317918E+02  0.10000001432E+02 0.  0.
        -12    1    1    2    0    0  0.35270978679E+02 -0.62308328850E+01  0.27317544890E+02  0.45045682082E+02  0.00000000000E+00 0.  1.
         11    1    3    3    0    0 -0.78116639469E+01 -0.46682448970E+00 -0.62045857225E+01  0.99868364847E+01  0.51100000000E-03 0. -1.
        -11    1    3    3    0    0 -0.11813737249E+02 -0.38841248407E+00 -0.58972054356E+01  0.13209552765E+02  0.51100000000E-03 0.  1.
         12    1    3    3    0    0 -0.15645577483E+02  0.70860698588E+01 -0.15215753732E+02  0.22945928668E+02  0.00000000000E+00 0. -1.
</event>
<event>
 7    1  0.4119299E-008  0.4614232E+02  0.7816164E-02  0.1320468E+00
        -11   -1    0    0    0    0  0.00000000000E+00  0.00000000000E+00  0.45593999997E+02  0.45594000000E+02  0.51100000000E-03 0.  1.
         11   -1    0    0    0    0 -0.00000000000E+00 -0.00000000000E+00 -0.45593999997E+02  0.45594000000E+02  0.51100000000E-03 0. -1.
    9900012    2    1    2    0    0 -0.31322603400E+02  0.18379791323E+02 -0.26649415328E+02  0.46142317075E+02  0.99999937459E+01 0.  0.
        -12    1    1    2    0    0  0.31322603400E+02 -0.18379791323E+02  0.26649415328E+02  0.45045682925E+02  0.00000000000E+00 0.  1.
         11    1    3    3    0    0 -0.12335383719E+02  0.10918003126E+02 -0.11850490480E+02  0.20292821604E+02  0.51100000000E-03 0. -1.
        -11    1    3    3    0    0 -0.13153180615E+02  0.29460509985E+01 -0.11695759928E+02  0.17845900855E+02  0.51100000000E-03 0.  1.
         12    1    3    3    0    0 -0.58340390651E+01  0.45157371989E+01 -0.31031649209E+01  0.80035946167E+01  0.00000000000E+00 0. -1.
</event>
<event>
 7    1  0.4119299E-008  0.4614232E+02  0.7816164E-02  0.1320468E+00
        -11   -1    0    0    0    0  0.00000000000E+00  0.00000000000E+00  0.45593999997E+02  0.45594000000E+02  0.51100000000E-03 0. -1.
         11   -1    0    0    0    0 -0.00000000000E+00 -0.00000000000E+00 -0.45593999997E+02  0.45594000000E+02  0.51100000000E-03 0.  1.
    9900012    2    1    2    0    0 -0.27661526892E+02  0.33143182467E+02 -0.12864016375E+02  0.46142317284E+02  0.99999956504E+01 0.  0.
        -12    1    1    2    0    0  0.27661526892E+02 -0.33143182467E+02  0.12864016375E+02  0.45045682716E+02  0.00000000000E+00 0.  1.
         11    1    3    3    0    0 -0.42147113782E+01  0.51225410345E+01 -0.39515460224E+01  0.77213298648E+01  0.51100000000E-03 0. -1.
        -11    1    3    3    0    0 -0.39104134754E+01  0.21018299878E+01 -0.31818710922E+01  0.54619892672E+01  0.51100000000E-03 0.  1.
         12    1    3    3    0    0 -0.19536402038E+02  0.25918811445E+02 -0.57305992604E+01  0.32958998152E+02  0.00000000000E+00 0. -1.
</event>
<event>
 7    1  0.4119299E-008  0.4614232E+02  0.7816164E-02  0.1320468E+00
        -11   -1    0    0    0    0  0.00000000000E+00  0.00000000000E+00  0.45593999997E+02  0.45594000000E+02  0.51100000000E-03 0. -1.
         11   -1    0    0    0    0 -0.00000000000E+00 -0.00000000000E+00 -0.45593999997E+02  0.45594000000E+02  0.51100000000E-03 0.  1.
    9900012    2    1    2    0    0 -0.14125116428E+02  0.42721847231E+02  0.21067472296E+01  0.46142317313E+02  0.99999959093E+01 0.  0.
        -12    1    1    2    0    0  0.14125116428E+02 -0.42721847231E+02 -0.21067472296E+01  0.45045682687E+02  0.00000000000E+00 0.  1.
         11    1    3    3    0    0 -0.80829752948E+00  0.10532488100E+02 -0.96025224359E+00  0.10607013486E+02  0.51100000000E-03 0. -1.
        -11    1    3    3    0    0 -0.32911672695E+01  0.16190531323E+02  0.13399331301E+01  0.16575901410E+02  0.51100000000E-03 0.  1.
         12    1    3    3    0    0 -0.10025651629E+02  0.15998827808E+02  0.17270663431E+01  0.18959402416E+02  0.00000000000E+00 0. -1.
</event>
<event>
 7    1  0.4119299E-008  0.4614232E+02  0.7816164E-02  0.1320468E+00
        -11   -1    0    0    0    0  0.00000000000E+00  0.00000000000E+00  0.45593999997E+02  0.45594000000E+02  0.51100000000E-03 0.  1.
         11   -1    0    0    0    0 -0.00000000000E+00 -0.00000000000E+00 -0.45593999997E+02  0.45594000000E+02  0.51100000000E-03 0. -1.
    9900012    2    1    2    0    0  0.31713146267E+02  0.44105835805E+01 -0.31684958077E+02  0.46142318054E+02  0.10000002667E+02 0.  0.
        -12    1    1    2    0    0 -0.31713146267E+02 -0.44105835805E+01  0.31684958077E+02  0.45045681946E+02  0.00000000000E+00 0.  1.
         11    1    3    3    0    0  0.56987359529E+01  0.21601331164E+01 -0.67470833396E+01  0.90920239988E+01  0.51100000000E-03 0. -1.
        -11    1    3    3    0    0  0.45562766120E+01  0.34702232155E+01 -0.70815620202E+01  0.91077234607E+01  0.51100000000E-03 0.  1.
        -12    1    3    3    0    0  0.21458133702E+02 -0.12197727514E+01 -0.17856312717E+02  0.27942570594E+02  0.00000000000E+00 0.  1.
</event>
<event>
 7    1  0.4119299E-008  0.4614232E+02  0.7816164E-02  0.1320468E+00
        -11   -1    0    0    0    0  0.00000000000E+00  0.00000000000E+00  0.45593999997E+02  0.45594000000E+02  0.51100000000E-03 0.  1.
         11   -1    0    0    0    0 -0.00000000000E+00 -0.00000000000E+00 -0.45593999997E+02  0.45594000000E+02  0.51100000000E-03 0. -1.
    9900012    2    1    2    0    0  0.46656665007E+01  0.44660470682E+02 -0.35759303580E+01  0.46142319149E+02  0.10000012658E+02 0.  0.
        -12    1    1    2    0    0 -0.46656665007E+01 -0.44660470682E+02  0.35759303580E+01  0.45045680851E+02  0.00000000000E+00 0.  1.
         11    1    3    3    0    0  0.42103807413E+01  0.33033958817E+02 -0.60288284069E+01  0.33842525221E+02  0.51100000000E-03 0. -1.
        -11    1    3    3    0    0 -0.11915589661E+01  0.25415559755E+01  0.81204700122E+00  0.29221122736E+01  0.51100000000E-03 0.  1.
        -12    1    3    3    0    0  0.16468447255E+01  0.90849558887E+01  0.16408510477E+01  0.93776816544E+01  0.00000000000E+00 0.  1.
</event>
<event>
 7    1  0.4119299E-008  0.4614232E+02  0.7816164E-02  0.1320468E+00
        -11   -1    0    0    0    0  0.00000000000E+00  0.00000000000E+00  0.45593999997E+02  0.45594000000E+02  0.51100000000E-03 0. -1.
         11   -1    0    0    0    0 -0.00000000000E+00 -0.00000000000E+00 -0.45593999997E+02  0.45594000000E+02  0.51100000000E-03 0.  1.
    9900012    2    1    2    0    0  0.64129367709E+01 -0.40884556825E+02  0.17788780049E+02  0.46142318293E+02  0.10000004853E+02 0.  0.
        -12    1    1    2    0    0 -0.64129367709E+01  0.40884556825E+02 -0.17788780049E+02  0.45045681707E+02  0.00000000000E+00 0.  1.
         11    1    3    3    0    0  0.20852251319E+01 -0.18502558921E+02  0.89246348969E+01  0.20648049757E+02  0.51100000000E-03 0. -1.
        -11    1    3    3    0    0  0.16145929743E+01 -0.19823523100E+02  0.88394805820E+01  0.21765003924E+02  0.51100000000E-03 0.  1.
         12    1    3    3    0    0  0.27131186647E+01 -0.25584748034E+01  0.24664570616E-01  0.37292646124E+01  0.00000000000E+00 0. -1.
</event>
<event>
 7    1  0.4119299E-008  0.4614232E+02  0.7816164E-02  0.1320468E+00
        -11   -1    0    0    0    0  0.00000000000E+00  0.00000000000E+00  0.45593999997E+02  0.45594000000E+02  0.51100000000E-03 0.  1.
         11   -1    0    0    0    0 -0.00000000000E+00 -0.00000000000E+00 -0.45593999997E+02  0.45594000000E+02  0.51100000000E-03 0. -1.
    9900012    2    1    2    0    0 -0.69171392342E+01 -0.59547620140E+01 -0.44111309515E+02  0.46142316156E+02  0.99999853653E+01 0.  0.
        -12    1    1    2    0    0  0.69171392342E+01  0.59547620140E+01  0.44111309515E+02  0.45045683844E+02  0.00000000000E+00 0.  1.
         11    1    3    3    0    0 -0.14887698897E+01 -0.25814912668E+01 -0.16082724915E+02  0.16356484155E+02  0.51100000000E-03 0. -1.
        -11    1    3    3    0    0 -0.52564257834E+01 -0.28078352748E+01 -0.28445199733E+02  0.29062748306E+02  0.51100000000E-03 0.  1.
        -12    1    3    3    0    0 -0.17194356104E+00 -0.56543547231E+00  0.41661513361E+00  0.72308369577E+00  0.00000000000E+00 0.  1.
</event>
<event>
 7    1  0.4119299E-008  0.4614232E+02  0.7816164E-02  0.1320468E+00
        -11   -1    0    0    0    0  0.00000000000E+00  0.00000000000E+00  0.45593999997E+02  0.45594000000E+02  0.51100000000E-03 0.  1.
         11   -1    0    0    0    0 -0.00000000000E+00 -0.00000000000E+00 -0.45593999997E+02  0.45594000000E+02  0.51100000000E-03 0. -1.
    9900012    2    1    2    0    0  0.33027249081E+02  0.27695595576E+02 -0.13086950138E+02  0.46142318075E+02  0.10000002862E+02 0.  0.
        -12    1    1    2    0    0 -0.33027249081E+02 -0.27695595576E+02  0.13086950138E+02  0.45045681925E+02  0.00000000000E+00 0.  1.
         11    1    3    3    0    0  0.19019534036E+02  0.15967739497E+02 -0.44144306860E+01  0.25222977186E+02  0.51100000000E-03 0. -1.
        -11    1    3    3    0    0  0.51349249196E+01  0.13191639517E+01 -0.17012958192E+01  0.55679489210E+01  0.51100000000E-03 0.  1.
        -12    1    3    3    0    0  0.88727901257E+01  0.10408692127E+02 -0.69712236327E+01  0.15351391968E+02  0.00000000000E+00 0.  1.
</event>
<event>
 7    1  0.4119299E-008  0.4614232E+02  0.7816164E-02  0.1320468E+00
        -11   -1    0    0    0    0  0.00000000000E+00  0.00000000000E+00  0.45593999997E+02  0.45594000000E+02  0.51100000000E-03 0. -1.
         11   -1    0    0    0    0 -0.00000000000E+00 -0.00000000000E+00 -0.45593999997E+02  0.45594000000E+02  0.51100000000E-03 0.  1.
    9900012    2    1    2    0    0  0.42609310744E+02  0.13849089720E+02  0.46650626593E+01  0.46142318101E+02  0.10000003100E+02 0.  0.
        -12    1    1    2    0    0 -0.42609310744E+02 -0.13849089720E+02 -0.46650626593E+01  0.45045681899E+02  0.00000000000E+00 0.  1.
         11    1    3    3    0    0  0.10809769724E+02  0.35832232442E+01  0.27773873018E+01  0.11721966166E+02  0.51100000000E-03 0. -1.
        -11    1    3    3    0    0  0.89612832662E+01 -0.78357760555E+00  0.66920831928E+00  0.90203343440E+01  0.51100000000E-03 0.  1.
        -12    1    3    3    0    0  0.22838257753E+02  0.11049444081E+02  0.12184670383E+01  0.25400017591E+02  0.00000000000E+00 0.  1.
</event>
<event>
 7    1  0.4119299E-008  0.4614232E+02  0.7816164E-02  0.1320468E+00
        -11   -1    0    0    0    0  0.00000000000E+00  0.00000000000E+00  0.45593999997E+02  0.45594000000E+02  0.51100000000E-03 0. -1.
         11   -1    0    0    0    0 -0.00000000000E+00 -0.00000000000E+00 -0.45593999997E+02  0.45594000000E+02  0.51100000000E-03 0.  1.
    9900012    2    1    2    0    0  0.81843906727E+01 -0.44016451177E+02  0.49680282475E+01  0.46142317304E+02  0.99999958274E+01 0.  0.
        -12    1    1    2    0    0 -0.81843906727E+01  0.44016451177E+02 -0.49680282475E+01  0.45045682696E+02  0.00000000000E+00 0.  1.
         11    1    3    3    0    0  0.25234443605E+01 -0.36408338501E+01  0.80672489071E+00  0.45026934022E+01  0.51100000000E-03 0. -1.
        -11    1    3    3    0    0  0.32968887010E+01 -0.53550622165E+01  0.13114290468E+01  0.64238627674E+01  0.51100000000E-03 0.  1.
        -12    1    3    3    0    0  0.23640576113E+01 -0.35020555111E+02  0.28498743100E+01  0.35215761134E+02  0.00000000000E+00 0.  1.
</event>
<event>
 7    1  0.4119299E-008  0.4614232E+02  0.7816164E-02  0.1320468E+00
        -11   -1    0    0    0    0  0.00000000000E+00  0.00000000000E+00  0.45593999997E+02  0.45594000000E+02  0.51100000000E-03 0.  1.
         11   -1    0    0    0    0 -0.00000000000E+00 -0.00000000000E+00 -0.45593999997E+02  0.45594000000E+02  0.51100000000E-03 0. -1.
    9900012    2    1    2    0    0 -0.25888481033E+02  0.11287479391E+02 -0.35092623509E+02  0.46142324670E+02  0.10000063000E+02 0.  0.
        -12    1    1    2    0    0  0.25888481033E+02 -0.11287479391E+02  0.35092623509E+02  0.45045675330E+02  0.00000000000E+00 0.  1.
         11    1    3    3    0    0 -0.73089016823E+01 -0.24669690530E-01 -0.88343499550E+01  0.11465879460E+02  0.51100000000E-03 0. -1.
        -11    1    3    3    0    0 -0.34988359100E+01  0.52751588016E+01 -0.86631776524E+01  0.10729389564E+02  0.51100000000E-03 0.  1.
         12    1    3    3    0    0 -0.15080743441E+02  0.60369902801E+01 -0.17595095901E+02  0.23947055647E+02  0.00000000000E+00 0. -1.
</event>
<event>
 7    1  0.4119299E-008  0.4614232E+02  0.7816164E-02  0.1320468E+00
        -11   -1    0    0    0    0  0.00000000000E+00  0.00000000000E+00  0.45593999997E+02  0.45594000000E+02  0.51100000000E-03 0. -1.
         11   -1    0    0    0    0 -0.00000000000E+00 -0.00000000000E+00 -0.45593999997E+02  0.45594000000E+02  0.51100000000E-03 0.  1.
    9900012    2    1    2    0    0  0.66138464186E+01  0.42842594279E+02  0.12242645042E+02  0.46142320889E+02  0.10000028519E+02 0.  0.
        -12    1    1    2    0    0 -0.66138464186E+01 -0.42842594279E+02 -0.12242645042E+02  0.45045679111E+02  0.00000000000E+00 0.  1.
         11    1    3    3    0    0  0.64681010235E+00  0.23110159325E+01  0.13026179038E+01  0.27305625085E+01  0.51100000000E-03 0. -1.
        -11    1    3    3    0    0  0.71664361613E+01  0.33742960689E+02  0.62068721483E+01  0.35049543014E+02  0.51100000000E-03 0.  1.
        -12    1    3    3    0    0 -0.11993998451E+01  0.67886176570E+01  0.47331549895E+01  0.83622153665E+01  0.00000000000E+00 0.  1.
</event>
<event>
 7    1  0.4119299E-008  0.4614232E+02  0.7816164E-02  0.1320468E+00
        -11   -1    0    0    0    0  0.00000000000E+00  0.00000000000E+00  0.45593999997E+02  0.45594000000E+02  0.51100000000E-03 0.  1.
         11   -1    0    0    0    0 -0.00000000000E+00 -0.00000000000E+00 -0.45593999997E+02  0.45594000000E+02  0.51100000000E-03 0. -1.
    9900012    2    1    2    0    0  0.19748017946E+02 -0.78944947017E+01 -0.39709015773E+02  0.46142321039E+02  0.10000029892E+02 0.  0.
        -12    1    1    2    0    0 -0.19748017946E+02  0.78944947017E+01  0.39709015773E+02  0.45045678961E+02  0.00000000000E+00 0.  1.
         11    1    3    3    0    0  0.11625847659E+02 -0.11260801564E+01 -0.15175729014E+02  0.19150225630E+02  0.51100000000E-03 0. -1.
        -11    1    3    3    0    0  0.26793805563E+01 -0.13086416033E+01 -0.11203303729E+02  0.11593344544E+02  0.51100000000E-03 0.  1.
        -12    1    3    3    0    0  0.54427897311E+01 -0.54597729420E+01 -0.13329983030E+02  0.15398750866E+02  0.00000000000E+00 0.  1.
</event>
<event>
 7    1  0.4119299E-008  0.4614232E+02  0.7816164E-02  0.1320468E+00
        -11   -1    0    0    0    0  0.00000000000E+00  0.00000000000E+00  0.45593999997E+02  0.45594000000E+02  0.51100000000E-03 0. -1.
         11   -1    0    0    0    0 -0.00000000000E+00 -0.00000000000E+00 -0.45593999997E+02  0.45594000000E+02  0.51100000000E-03 0.  1.
    9900012    2    1    2    0    0 -0.30242926630E+01 -0.57052529909E+01  0.44580456654E+02  0.46142319039E+02  0.10000011653E+02 0.  0.
        -12    1    1    2    0    0  0.30242926630E+01  0.57052529909E+01 -0.44580456654E+02  0.45045680961E+02  0.00000000000E+00 0.  1.
         11    1    3    3    0    0 -0.88759704273E+00 -0.43753479086E+01  0.39373680254E+02  0.39625978788E+02  0.51100000000E-03 0. -1.
        -11    1    3    3    0    0  0.78992505253E-01  0.32825113580E+00  0.28828775068E+01  0.29025801633E+01  0.51100000000E-03 0.  1.
        -12    1    3    3    0    0 -0.22156881255E+01 -0.16581562181E+01  0.23238988922E+01  0.36137600881E+01  0.00000000000E+00 0.  1.
</event>
<event>
 7    1  0.4119299E-008  0.4614232E+02  0.7816164E-02  0.1320468E+00
        -11   -1    0    0    0    0  0.00000000000E+00  0.00000000000E+00  0.45593999997E+02  0.45594000000E+02  0.51100000000E-03 0.  1.
         11   -1    0    0    0    0 -0.00000000000E+00 -0.00000000000E+00 -0.45593999997E+02  0.45594000000E+02  0.51100000000E-03 0. -1.
    9900012    2    1    2    0    0 -0.25689669946E+02 -0.22828291232E+02 -0.29120842004E+02  0.46142318059E+02  0.10000002713E+02 0.  0.
        -12    1    1    2    0    0  0.25689669946E+02  0.22828291232E+02  0.29120842004E+02  0.45045681941E+02  0.00000000000E+00 0.  1.
         11    1    3    3    0    0 -0.14163599394E+02 -0.17953706731E+02 -0.17341173527E+02  0.28699467464E+02  0.51100000000E-03 0. -1.
        -11    1    3    3    0    0 -0.62644324628E+01 -0.29314735027E+01 -0.44939455267E+01  0.82481632887E+01  0.51100000000E-03 0.  1.
        -12    1    3    3    0    0 -0.52616380896E+01 -0.19431109986E+01 -0.72857229507E+01  0.91946873059E+01  0.00000000000E+00 0.  1.
</event>
<event>
 7    1  0.4119299E-008  0.4614232E+02  0.7816164E-02  0.1320468E+00
        -11   -1    0    0    0    0  0.00000000000E+00  0.00000000000E+00  0.45593999997E+02  0.45594000000E+02  0.51100000000E-03 0. -1.
         11   -1    0    0    0    0 -0.00000000000E+00 -0.00000000000E+00 -0.45593999997E+02  0.45594000000E+02  0.51100000000E-03 0.  1.
    9900012    2    1    2    0    0 -0.39398193369E+02  0.46850671428E+01 -0.21329463589E+02  0.46142317500E+02  0.99999976191E+01 0.  0.
        -12    1    1    2    0    0  0.39398193369E+02 -0.46850671428E+01  0.21329463589E+02  0.45045682500E+02  0.00000000000E+00 0.  1.
         11    1    3    3    0    0 -0.30918199262E+02  0.54936652377E+01 -0.19670819927E+02  0.37054777833E+02  0.51100000000E-03 0. -1.
        -11    1    3    3    0    0 -0.44095336858E+01  0.60242009255E+00  0.55802944632E-01  0.44508439115E+01  0.51100000000E-03 0.  1.
         12    1    3    3    0    0 -0.40704604212E+01 -0.14110181875E+01 -0.17144466065E+01  0.46366957558E+01  0.00000000000E+00 0. -1.
</event>
<event>
 7    1  0.4119299E-008  0.4614232E+02  0.7816164E-02  0.1320468E+00
        -11   -1    0    0    0    0  0.00000000000E+00  0.00000000000E+00  0.45593999997E+02  0.45594000000E+02  0.51100000000E-03 0.  1.
         11   -1    0    0    0    0 -0.00000000000E+00 -0.00000000000E+00 -0.45593999997E+02  0.45594000000E+02  0.51100000000E-03 0. -1.
    9900012    2    1    2    0    0  0.30882095342E+02  0.22293346139E+02 -0.24050289108E+02  0.46142317622E+02  0.99999987276E+01 0.  0.
        -12    1    1    2    0    0 -0.30882095342E+02 -0.22293346139E+02  0.24050289108E+02  0.45045682378E+02  0.00000000000E+00 0.  1.
         11    1    3    3    0    0  0.77361099152E+01  0.97239442694E+01 -0.10283706131E+02  0.16129386251E+02  0.51100000000E-03 0. -1.
        -11    1    3    3    0    0  0.65370425154E+01  0.33529984337E+01 -0.18036192307E+01  0.75649564397E+01  0.51100000000E-03 0.  1.
         12    1    3    3    0    0  0.16608942911E+02  0.92164034356E+01 -0.11962963747E+02  0.22447974931E+02  0.00000000000E+00 0. -1.
</event>
<event>
 7    1  0.4119299E-008  0.4614232E+02  0.7816164E-02  0.1320468E+00
        -11   -1    0    0    0    0  0.00000000000E+00  0.00000000000E+00  0.45593999997E+02  0.45594000000E+02  0.51100000000E-03 0. -1.
         11   -1    0    0    0    0 -0.00000000000E+00 -0.00000000000E+00 -0.45593999997E+02  0.45594000000E+02  0.51100000000E-03 0.  1.
    9900012    2    1    2    0    0 -0.37530354887E+02 -0.70843928662E+01  0.23882988543E+02  0.46142319830E+02  0.10000018868E+02 0.  0.
        -12    1    1    2    0    0  0.37530354887E+02  0.70843928662E+01 -0.23882988543E+02  0.45045680170E+02  0.00000000000E+00 0.  1.
         11    1    3    3    0    0 -0.25786702969E+02 -0.46256673844E+01  0.13344254272E+02  0.29401019899E+02  0.51100000000E-03 0. -1.
        -11    1    3    3    0    0 -0.10136110396E+01  0.10131268980E+01  0.25350921374E+01  0.29121342444E+01  0.51100000000E-03 0.  1.
         12    1    3    3    0    0 -0.10730040879E+02 -0.34718523798E+01  0.80036421333E+01  0.13829165687E+02  0.00000000000E+00 0. -1.
</event>
<event>
 7    1  0.4119299E-008  0.4614232E+02  0.7816164E-02  0.1320468E+00
        -11   -1    0    0    0    0  0.00000000000E+00  0.00000000000E+00  0.45593999997E+02  0.45594000000E+02  0.51100000000E-03 0. -1.
         11   -1    0    0    0    0 -0.00000000000E+00 -0.00000000000E+00 -0.45593999997E+02  0.45594000000E+02  0.51100000000E-03 0.  1.
    9900012    2    1    2    0    0  0.14504265529E+02  0.14786551318E+02  0.40001220630E+02  0.46142317962E+02  0.10000001832E+02 0.  0.
        -12    1    1    2    0    0 -0.14504265529E+02 -0.14786551318E+02 -0.40001220630E+02  0.45045682038E+02  0.00000000000E+00 0.  1.
         11    1    3    3    0    0  0.65106314318E+00  0.15603358681E+01  0.32842106606E+01  0.36938558665E+01  0.51100000000E-03 0. -1.
        -11    1    3    3    0    0  0.77283340259E+01  0.12906280770E+02  0.28074491446E+02  0.31850844578E+02  0.51100000000E-03 0.  1.
        -12    1    3    3    0    0  0.61248683602E+01  0.31993467963E+00  0.86425185232E+01  0.10597617518E+02  0.00000000000E+00 0.  1.
</event>
<event>
 7    1  0.4119299E-008  0.4614232E+02  0.7816164E-02  0.1320468E+00
        -11   -1    0    0    0    0  0.00000000000E+00  0.00000000000E+00  0.45593999997E+02  0.45594000000E+02  0.51100000000E-03 0. -1.
         11   -1    0    0    0    0 -0.00000000000E+00 -0.00000000000E+00 -0.45593999997E+02  0.45594000000E+02  0.51100000000E-03 0.  1.
    9900012    2    1    2    0    0 -0.81022824997E+01 -0.41883752229E+02 -0.14464366627E+02  0.46142316696E+02  0.99999902831E+01 0.  0.
        -12    1    1    2    0    0  0.81022824997E+01  0.41883752229E+02  0.14464366627E+02  0.45045683304E+02  0.00000000000E+00 0.  1.
         11    1    3    3    0    0 -0.70670692184E+01 -0.39097844270E+02 -0.11827237378E+02  0.41454413977E+02  0.51100000000E-03 0. -1.
        -11    1    3    3    0    0 -0.11685317594E+01 -0.35530269290E+00 -0.18966987587E+00  0.12359940935E+01  0.51100000000E-03 0.  1.
         12    1    3    3    0    0  0.13331847817E+00 -0.24306052655E+01 -0.24474593729E+01  0.34519086250E+01  0.00000000000E+00 0. -1.
</event>
<event>
 7    1  0.4119299E-008  0.4614233E+02  0.7816164E-02  0.1320468E+00
        -11   -1    0    0    0    0  0.00000000000E+00  0.00000000000E+00  0.45593999997E+02  0.45594000000E+02  0.51100000000E-03 0.  1.
         11   -1    0    0    0    0 -0.00000000000E+00 -0.00000000000E+00 -0.45593999997E+02  0.45594000000E+02  0.51100000000E-03 0. -1.
    9900012    2    1    2    0    0 -0.18814973536E+02 -0.18372505919E+02 -0.36572673294E+02  0.46142327236E+02  0.10000086401E+02 0.  0.
        -12    1    1    2    0    0  0.18814973536E+02  0.18372505919E+02  0.36572673294E+02  0.45045672764E+02  0.00000000000E+00 0.  1.
         11    1    3    3    0    0 -0.13148711132E+02 -0.95908445341E+01 -0.17626033870E+02  0.23990622617E+02  0.51100000000E-03 0. -1.
        -11    1    3    3    0    0 -0.62464642215E+01 -0.88447432266E+01 -0.17349065164E+02  0.20450864538E+02  0.51100000000E-03 0.  1.
        -12    1    3    3    0    0  0.58020181733E+00  0.63081841580E-01 -0.15975742595E+01  0.17008400813E+01  0.00000000000E+00 0.  1.
</event>
<event>
 7    1  0.4119299E-008  0.4614232E+02  0.7816164E-02  0.1320468E+00
        -11   -1    0    0    0    0  0.00000000000E+00  0.00000000000E+00  0.45593999997E+02  0.45594000000E+02  0.51100000000E-03 0.  1.
         11   -1    0    0    0    0 -0.00000000000E+00 -0.00000000000E+00 -0.45593999997E+02  0.45594000000E+02  0.51100000000E-03 0. -1.
    9900012    2    1    2    0    0 -0.23563599898E+02  0.24362013115E+02 -0.29670906116E+02  0.46142316600E+02  0.99999894160E+01 0.  0.
        -12    1    1    2    0    0  0.23563599898E+02 -0.24362013115E+02  0.29670906116E+02  0.45045683400E+02  0.00000000000E+00 0.  1.
         11    1    3    3    0    0 -0.14848074707E+02  0.14617529052E+02 -0.21221947713E+02  0.29740688343E+02  0.51100000000E-03 0. -1.
        -11    1    3    3    0    0 -0.20548313742E+01  0.22649897747E+01  0.33958400826E+00  0.30769836229E+01  0.51100000000E-03 0.  1.
        -12    1    3    3    0    0 -0.66606938166E+01  0.74794942882E+01 -0.87885424115E+01  0.13324644635E+02  0.00000000000E+00 0.  1.
</event>
<event>
 7    1  0.4119299E-008  0.4614232E+02  0.7816164E-02  0.1320468E+00
        -11   -1    0    0    0    0  0.00000000000E+00  0.00000000000E+00  0.45593999997E+02  0.45594000000E+02  0.51100000000E-03 0.  1.
         11   -1    0    0    0    0 -0.00000000000E+00 -0.00000000000E+00 -0.45593999997E+02  0.45594000000E+02  0.51100000000E-03 0. -1.
    9900012    2    1    2    0    0  0.84919601247E+00  0.13020775490E+01 -0.45018851269E+02  0.46142317528E+02  0.99999978730E+01 0.  0.
        -12    1    1    2    0    0 -0.84919601247E+00 -0.13020775490E+01  0.45018851269E+02  0.45045682472E+02  0.00000000000E+00 0.  1.
         11    1    3    3    0    0 -0.99040068777E+00 -0.11301580374E+01 -0.21513698181E+02  0.21566116025E+02  0.51100000000E-03 0. -1.
        -11    1    3    3    0    0 -0.47017499939E+00  0.37000362472E+01 -0.18952915916E+02  0.19316427069E+02  0.51100000000E-03 0.  1.
         12    1    3    3    0    0  0.23097716996E+01 -0.12678006609E+01 -0.45522371721E+01  0.52597744335E+01  0.00000000000E+00 0. -1.
</event>
<event>
 7    1  0.4119299E-008  0.4614232E+02  0.7816164E-02  0.1320468E+00
        -11   -1    0    0    0    0  0.00000000000E+00  0.00000000000E+00  0.45593999997E+02  0.45594000000E+02  0.51100000000E-03 0.  1.
         11   -1    0    0    0    0 -0.00000000000E+00 -0.00000000000E+00 -0.45593999997E+02  0.45594000000E+02  0.51100000000E-03 0. -1.
    9900012    2    1    2    0    0  0.13958861679E+02  0.21421030685E+02 -0.37086427903E+02  0.46142317525E+02  0.99999978508E+01 0.  0.
        -12    1    1    2    0    0 -0.13958861679E+02 -0.21421030685E+02  0.37086427903E+02  0.45045682475E+02  0.00000000000E+00 0.  1.
         11    1    3    3    0    0  0.12722379587E+02  0.21043538417E+02 -0.37238175308E+02  0.44624781815E+02  0.51100000000E-03 0. -1.
        -11    1    3    3    0    0  0.49900461191E+00  0.80352004204E-01 -0.31501441709E+00  0.59556392720E+00  0.51100000000E-03 0.  1.
         12    1    3    3    0    0  0.73747748009E+00  0.29714026401E+00  0.46676182255E+00  0.92197178326E+00  0.00000000000E+00 0. -1.
</event>
<event>
 7    1  0.4119299E-008  0.4614232E+02  0.7816164E-02  0.1320468E+00
        -11   -1    0    0    0    0  0.00000000000E+00  0.00000000000E+00  0.45593999997E+02  0.45594000000E+02  0.51100000000E-03 0. -1.
         11   -1    0    0    0    0 -0.00000000000E+00 -0.00000000000E+00 -0.45593999997E+02  0.45594000000E+02  0.51100000000E-03 0.  1.
    9900012    2    1    2    0    0  0.25903568455E+02  0.85585370663E+01  0.35845084159E+02  0.46142317923E+02  0.10000001472E+02 0.  0.
        -12    1    1    2    0    0 -0.25903568455E+02 -0.85585370663E+01 -0.35845084159E+02  0.45045682077E+02  0.00000000000E+00 0.  1.
         11    1    3    3    0    0  0.11098601034E+02  0.58660740760E+01  0.10101622004E+02  0.16113116935E+02  0.51100000000E-03 0. -1.
        -11    1    3    3    0    0  0.58416486083E+01  0.20059018378E+01  0.13442094868E+02  0.14793188140E+02  0.51100000000E-03 0.  1.
         12    1    3    3    0    0  0.89633188124E+01  0.68656115251E+00  0.12301367287E+02  0.15236012847E+02  0.00000000000E+00 0. -1.
</event>
<event>
 7    1  0.4119299E-008  0.4614232E+02  0.7816164E-02  0.1320468E+00
        -11   -1    0    0    0    0  0.00000000000E+00  0.00000000000E+00  0.45593999997E+02  0.45594000000E+02  0.51100000000E-03 0.  1.
         11   -1    0    0    0    0 -0.00000000000E+00 -0.00000000000E+00 -0.45593999997E+02  0.45594000000E+02  0.51100000000E-03 0. -1.
    9900012    2    1    2    0    0  0.16125046298E+02 -0.32621257030E+02 -0.26550894177E+02  0.46142317522E+02  0.99999978175E+01 0.  0.
        -12    1    1    2    0    0 -0.16125046298E+02  0.32621257030E+02  0.26550894177E+02  0.45045682478E+02  0.00000000000E+00 0.  1.
         11    1    3    3    0    0  0.10499362358E+02 -0.22088475340E+02 -0.14371973084E+02  0.28367075341E+02  0.51100000000E-03 0. -1.
        -11    1    3    3    0    0  0.33440759693E+01 -0.59514196845E+01 -0.10230170917E+02  0.12298725040E+02  0.51100000000E-03 0.  1.
        -12    1    3    3    0    0  0.22816079701E+01 -0.45813620048E+01 -0.19487501760E+01  0.54765171411E+01  0.00000000000E+00 0.  1.
</event>
<event>
 7    1  0.4119299E-008  0.4614232E+02  0.7816164E-02  0.1320468E+00
        -11   -1    0    0    0    0  0.00000000000E+00  0.00000000000E+00  0.45593999997E+02  0.45594000000E+02  0.51100000000E-03 0.  1.
         11   -1    0    0    0    0 -0.00000000000E+00 -0.00000000000E+00 -0.45593999997E+02  0.45594000000E+02  0.51100000000E-03 0. -1.
    9900012    2    1    2    0    0 -0.39055009656E+01 -0.16324479168E+02 -0.41801578016E+02  0.46142317827E+02  0.10000000597E+02 0.  0.
        -12    1    1    2    0    0  0.39055009656E+01  0.16324479168E+02  0.41801578016E+02  0.45045682173E+02  0.00000000000E+00 0.  1.
         11    1    3    3    0    0 -0.43064102038E+01 -0.68265042701E+01 -0.27071494926E+02  0.28249109139E+02  0.51100000000E-03 0. -1.
        -11    1    3    3    0    0  0.56918318883E+00 -0.17851804834E+01 -0.57852522297E+01  0.60811168779E+01  0.51100000000E-03 0.  1.
        -12    1    3    3    0    0 -0.16827395057E+00 -0.77127944140E+01 -0.89448308602E+01  0.11812091809E+02  0.00000000000E+00 0.  1.
</event>
<event>
 7    1  0.4119299E-008  0.4614232E+02  0.7816164E-02  0.1320468E+00
        -11   -1    0    0    0    0  0.00000000000E+00  0.00000000000E+00  0.45593999997E+02  0.45594000000E+02  0.51100000000E-03 0. -1.
         11   -1    0    0    0    0 -0.00000000000E+00 -0.00000000000E+00 -0.45593999997E+02  0.45594000000E+02  0.51100000000E-03 0.  1.
    9900012    2    1    2    0    0  0.91550381008E+01 -0.36288218630E+02 -0.25069187046E+02  0.46142315710E+02  0.99999812988E+01 0.  0.
        -12    1    1    2    0    0 -0.91550381008E+01  0.36288218630E+02  0.25069187046E+02  0.45045684290E+02  0.00000000000E+00 0.  1.
         11    1    3    3    0    0  0.11546611171E+01 -0.87260748494E+01 -0.54335406161E+01  0.10344128212E+02  0.51100000000E-03 0. -1.
        -11    1    3    3    0    0  0.49264835401E+01 -0.21612011421E+02 -0.18768805059E+02  0.29045091175E+02  0.51100000000E-03 0.  1.
         12    1    3    3    0    0  0.30738934437E+01 -0.59501323591E+01 -0.86684137125E+00  0.67530963237E+01  0.00000000000E+00 0. -1.
</event>
<event>
 7    1  0.4119299E-008  0.4614232E+02  0.7816164E-02  0.1320468E+00
        -11   -1    0    0    0    0  0.00000000000E+00  0.00000000000E+00  0.45593999997E+02  0.45594000000E+02  0.51100000000E-03 0.  1.
         11   -1    0    0    0    0 -0.00000000000E+00 -0.00000000000E+00 -0.45593999997E+02  0.45594000000E+02  0.51100000000E-03 0. -1.
    9900012    2    1    2    0    0 -0.16633705272E+02 -0.34014958190E+02 -0.24401144275E+02  0.46142319034E+02  0.10000011610E+02 0.  0.
        -12    1    1    2    0    0  0.16633705272E+02  0.34014958190E+02  0.24401144275E+02  0.45045680966E+02  0.00000000000E+00 0.  1.
         11    1    3    3    0    0 -0.80260527666E+01 -0.12647541439E+02 -0.11717967834E+02  0.19018112363E+02  0.51100000000E-03 0. -1.
        -11    1    3    3    0    0  0.10174108632E+01 -0.38618366632E+01 -0.23306198543E+01  0.46239265180E+01  0.51100000000E-03 0.  1.
        -12    1    3    3    0    0 -0.96250633686E+01 -0.17505580088E+02 -0.10352556587E+02  0.22500280153E+02  0.00000000000E+00 0.  1.
</event>
<event>
 7    1  0.4119299E-008  0.4614232E+02  0.7816164E-02  0.1320468E+00
        -11   -1    0    0    0    0  0.00000000000E+00  0.00000000000E+00  0.45593999997E+02  0.45594000000E+02  0.51100000000E-03 0.  1.
         11   -1    0    0    0    0 -0.00000000000E+00 -0.00000000000E+00 -0.45593999997E+02  0.45594000000E+02  0.51100000000E-03 0. -1.
    9900012    2    1    2    0    0  0.41738489965E+02  0.10165465784E+02 -0.13552683412E+02  0.46142318000E+02  0.10000002178E+02 0.  0.
        -12    1    1    2    0    0 -0.41738489965E+02 -0.10165465784E+02  0.13552683412E+02  0.45045682000E+02  0.00000000000E+00 0.  1.
         11    1    3    3    0    0  0.22720864054E+02  0.84800075412E+01 -0.56278070259E+01  0.24896192549E+02  0.51100000000E-03 0. -1.
        -11    1    3    3    0    0  0.72798214775E+01 -0.10984923427E+01 -0.12768421557E+01  0.74721357270E+01  0.51100000000E-03 0.  1.
         12    1    3    3    0    0  0.11737804434E+02  0.27839505859E+01 -0.66480342304E+01  0.13773989724E+02  0.00000000000E+00 0. -1.
</event>
<event>
 7    1  0.4119299E-008  0.4614232E+02  0.7816164E-02  0.1320468E+00
        -11   -1    0    0    0    0  0.00000000000E+00  0.00000000000E+00  0.45593999997E+02  0.45594000000E+02  0.51100000000E-03 0.  1.
         11   -1    0    0    0    0 -0.00000000000E+00 -0.00000000000E+00 -0.45593999997E+02  0.45594000000E+02  0.51100000000E-03 0. -1.
    9900012    2    1    2    0    0  0.16780562600E+02 -0.19267102815E+02 -0.37098583554E+02  0.46142318367E+02  0.10000005528E+02 0.  0.
        -12    1    1    2    0    0 -0.16780562600E+02  0.19267102815E+02  0.37098583554E+02  0.45045681633E+02  0.00000000000E+00 0.  1.
         11    1    3    3    0    0  0.13300286413E+02 -0.86057619878E+01 -0.20052504900E+02  0.25555032989E+02  0.51100000000E-03 0. -1.
        -11    1    3    3    0    0 -0.54479524364E-01 -0.22802655039E+01 -0.49735640707E+01  0.54716467917E+01  0.51100000000E-03 0.  1.
         12    1    3    3    0    0  0.35347557108E+01 -0.83810753231E+01 -0.12072514583E+02  0.15115638586E+02  0.00000000000E+00 0. -1.
</event>
<event>
 7    1  0.4119299E-008  0.4614232E+02  0.7816164E-02  0.1320468E+00
        -11   -1    0    0    0    0  0.00000000000E+00  0.00000000000E+00  0.45593999997E+02  0.45594000000E+02  0.51100000000E-03 0.  1.
         11   -1    0    0    0    0 -0.00000000000E+00 -0.00000000000E+00 -0.45593999997E+02  0.45594000000E+02  0.51100000000E-03 0. -1.
    9900012    2    1    2    0    0  0.41472747347E+02 -0.16527259167E+02 -0.59978634209E+01  0.46142318368E+02  0.10000005531E+02 0.  0.
        -12    1    1    2    0    0 -0.41472747347E+02  0.16527259167E+02  0.59978634209E+01  0.45045681632E+02  0.00000000000E+00 0.  1.
         11    1    3    3    0    0  0.17594695402E+02 -0.10770375506E+02 -0.28587475432E+01  0.20826587157E+02  0.51100000000E-03 0. -1.
        -11    1    3    3    0    0  0.72361362376E+00 -0.67823776640E+00  0.81457134435E+00  0.12834133708E+01  0.51100000000E-03 0.  1.
         12    1    3    3    0    0  0.23154438321E+02 -0.50786458941E+01 -0.39536872220E+01  0.24032317839E+02  0.00000000000E+00 0. -1.
</event>
<event>
 7    1  0.4119299E-008  0.4614232E+02  0.7816164E-02  0.1320468E+00
        -11   -1    0    0    0    0  0.00000000000E+00  0.00000000000E+00  0.45593999997E+02  0.45594000000E+02  0.51100000000E-03 0.  1.
         11   -1    0    0    0    0 -0.00000000000E+00 -0.00000000000E+00 -0.45593999997E+02  0.45594000000E+02  0.51100000000E-03 0. -1.
    9900012    2    1    2    0    0  0.36435333033E+02  0.45138320532E+01 -0.26099905428E+02  0.46142320558E+02  0.10000025502E+02 0.  0.
        -12    1    1    2    0    0 -0.36435333033E+02 -0.45138320532E+01  0.26099905428E+02  0.45045679442E+02  0.00000000000E+00 0.  1.
         11    1    3    3    0    0  0.24585683583E+02  0.49173019230E+01 -0.18715136762E+02  0.31287250434E+02  0.51100000000E-03 0. -1.
        -11    1    3    3    0    0  0.46558041229E+01  0.14856545707E+01 -0.86245861708E+00  0.49626118790E+01  0.51100000000E-03 0.  1.
        -12    1    3    3    0    0  0.71938453276E+01 -0.18891244404E+01 -0.65223100492E+01  0.98924582449E+01  0.00000000000E+00 0.  1.
</event>
<event>
 7    1  0.4119299E-008  0.4614232E+02  0.7816164E-02  0.1320468E+00
        -11   -1    0    0    0    0  0.00000000000E+00  0.00000000000E+00  0.45593999997E+02  0.45594000000E+02  0.51100000000E-03 0.  1.
         11   -1    0    0    0    0 -0.00000000000E+00 -0.00000000000E+00 -0.45593999997E+02  0.45594000000E+02  0.51100000000E-03 0. -1.
    9900012    2    1    2    0    0  0.28337747221E+02 -0.21392010597E+02 -0.27721245919E+02  0.46142317518E+02  0.99999977833E+01 0.  0.
        -12    1    1    2    0    0 -0.28337747221E+02  0.21392010597E+02  0.27721245919E+02  0.45045682482E+02  0.00000000000E+00 0.  1.
         11    1    3    3    0    0  0.91343966471E+01 -0.63141549771E+01 -0.78084909948E+01  0.13574913888E+02  0.51100000000E-03 0. -1.
        -11    1    3    3    0    0  0.53639299148E+01 -0.53725327482E+01 -0.18195896781E+01  0.78068405337E+01  0.51100000000E-03 0.  1.
         12    1    3    3    0    0  0.13839420659E+02 -0.97053228720E+01 -0.18093165246E+02  0.24760563097E+02  0.00000000000E+00 0. -1.
</event>
<event>
 7    1  0.4119299E-008  0.4614232E+02  0.7816164E-02  0.1320468E+00
        -11   -1    0    0    0    0  0.00000000000E+00  0.00000000000E+00  0.45593999997E+02  0.45594000000E+02  0.51100000000E-03 0.  1.
         11   -1    0    0    0    0 -0.00000000000E+00 -0.00000000000E+00 -0.45593999997E+02  0.45594000000E+02  0.51100000000E-03 0. -1.
    9900012    2    1    2    0    0 -0.35048334032E+02 -0.13854285431E+02 -0.24673598592E+02  0.46142318623E+02  0.10000007859E+02 0.  0.
        -12    1    1    2    0    0  0.35048334032E+02  0.13854285431E+02  0.24673598592E+02  0.45045681377E+02  0.00000000000E+00 0.  1.
         11    1    3    3    0    0 -0.23580273016E+02 -0.60962715728E+01 -0.17607423855E+02  0.30053538522E+02  0.51100000000E-03 0. -1.
        -11    1    3    3    0    0 -0.27423181611E+01 -0.31826242857E+01 -0.39204071028E+01  0.57462160030E+01  0.51100000000E-03 0.  1.
        -12    1    3    3    0    0 -0.87257428549E+01 -0.45753895731E+01 -0.31457676338E+01  0.10342564098E+02  0.00000000000E+00 0.  1.
</event>
<event>
 7    1  0.4119299E-008  0.4614232E+02  0.7816164E-02  0.1320468E+00
        -11   -1    0    0    0    0  0.00000000000E+00  0.00000000000E+00  0.45593999997E+02  0.45594000000E+02  0.51100000000E-03 0. -1.
         11   -1    0    0    0    0 -0.00000000000E+00 -0.00000000000E+00 -0.45593999997E+02  0.45594000000E+02  0.51100000000E-03 0.  1.
    9900012    2    1    2    0    0  0.34713414197E+02  0.22134363570E+02 -0.18280106793E+02  0.46142317851E+02  0.10000000823E+02 0.  0.
        -12    1    1    2    0    0 -0.34713414197E+02 -0.22134363570E+02  0.18280106793E+02  0.45045682149E+02  0.00000000000E+00 0.  1.
         11    1    3    3    0    0  0.21145976324E+01  0.17686572063E+01  0.73439340583E+00  0.28528942139E+01  0.51100000000E-03 0. -1.
        -11    1    3    3    0    0  0.28183262678E+02  0.19013504905E+02 -0.14956037714E+02  0.37141522967E+02  0.51100000000E-03 0.  1.
         12    1    3    3    0    0  0.44155538868E+01  0.13522014592E+01 -0.40584624853E+01  0.61479006708E+01  0.00000000000E+00 0. -1.
</event>
<event>
 7    1  0.4119299E-008  0.4614232E+02  0.7816164E-02  0.1320468E+00
        -11   -1    0    0    0    0  0.00000000000E+00  0.00000000000E+00  0.45593999997E+02  0.45594000000E+02  0.51100000000E-03 0.  1.
         11   -1    0    0    0    0 -0.00000000000E+00 -0.00000000000E+00 -0.45593999997E+02  0.45594000000E+02  0.51100000000E-03 0. -1.
    9900012    2    1    2    0    0 -0.13420031025E+02  0.42990535235E+02 -0.91111427837E+00  0.46142317835E+02  0.10000000672E+02 0.  0.
        -12    1    1    2    0    0  0.13420031025E+02 -0.42990535235E+02  0.91111427837E+00  0.45045682165E+02  0.00000000000E+00 0.  1.
         11    1    3    3    0    0 -0.19319960550E+01  0.18778094702E+02 -0.55168014050E+00  0.18885279998E+02  0.51100000000E-03 0.  1.
        -11    1    3    3    0    0 -0.19784355777E-01  0.32044924537E+01  0.77091695005E+00  0.32959788397E+01  0.51100000000E-03 0. -1.
        -12    1    3    3    0    0 -0.11468250614E+02  0.21007948080E+02 -0.11303510879E+01  0.23961058997E+02  0.00000000000E+00 0.  1.
</event>
<event>
 7    1  0.4119299E-008  0.4614232E+02  0.7816164E-02  0.1320468E+00
        -11   -1    0    0    0    0  0.00000000000E+00  0.00000000000E+00  0.45593999997E+02  0.45594000000E+02  0.51100000000E-03 0.  1.
         11   -1    0    0    0    0 -0.00000000000E+00 -0.00000000000E+00 -0.45593999997E+02  0.45594000000E+02  0.51100000000E-03 0. -1.
    9900012    2    1    2    0    0 -0.43771016857E+01  0.19632970267E+02 -0.40305098066E+02  0.46142317957E+02  0.10000001782E+02 0.  0.
        -12    1    1    2    0    0  0.43771016857E+01 -0.19632970267E+02  0.40305098066E+02  0.45045682043E+02  0.00000000000E+00 0.  1.
         11    1    3    3    0    0 -0.75441262923E+00  0.76728901068E+00 -0.31897615001E+01  0.33663703792E+01  0.51100000000E-03 0.  1.
        -11    1    3    3    0    0 -0.47942176220E+00  0.43966158033E+01 -0.23933041147E+01  0.50287156008E+01  0.51100000000E-03 0. -1.
         12    1    3    3    0    0 -0.31432672942E+01  0.14469065453E+02 -0.34722032451E+02  0.37747231977E+02  0.00000000000E+00 0. -1.
</event>
<event>
 7    1  0.4119299E-008  0.4614232E+02  0.7816164E-02  0.1320468E+00
        -11   -1    0    0    0    0  0.00000000000E+00  0.00000000000E+00  0.45593999997E+02  0.45594000000E+02  0.51100000000E-03 0.  1.
         11   -1    0    0    0    0 -0.00000000000E+00 -0.00000000000E+00 -0.45593999997E+02  0.45594000000E+02  0.51100000000E-03 0. -1.
    9900012    2    1    2    0    0 -0.34206333834E+02 -0.23920439177E+02 -0.16936729152E+02  0.46142317863E+02  0.10000000930E+02 0.  0.
        -12    1    1    2    0    0  0.34206333834E+02  0.23920439177E+02  0.16936729152E+02  0.45045682137E+02  0.00000000000E+00 0.  1.
         11    1    3    3    0    0 -0.23910414268E+01 -0.33032921977E-01 -0.13249791220E+01  0.27338142244E+01  0.51100000000E-03 0. -1.
        -11    1    3    3    0    0 -0.14855759388E+02 -0.84064636189E+01 -0.99517709527E+01  0.19758541518E+02  0.51100000000E-03 0.  1.
         12    1    3    3    0    0 -0.16959533020E+02 -0.15480942636E+02 -0.56599790778E+01  0.23649962120E+02  0.00000000000E+00 0. -1.
</event>
<event>
 7    1  0.4119299E-008  0.4614232E+02  0.7816164E-02  0.1320468E+00
        -11   -1    0    0    0    0  0.00000000000E+00  0.00000000000E+00  0.45593999997E+02  0.45594000000E+02  0.51100000000E-03 0.  1.
         11   -1    0    0    0    0 -0.00000000000E+00 -0.00000000000E+00 -0.45593999997E+02  0.45594000000E+02  0.51100000000E-03 0. -1.
    9900012    2    1    2    0    0 -0.35386197378E+02  0.27821465264E+02 -0.17019490514E+01  0.46142317356E+02  0.99999963031E+01 0.  0.
        -12    1    1    2    0    0  0.35386197378E+02 -0.27821465264E+02  0.17019490514E+01  0.45045682644E+02  0.00000000000E+00 0.  1.
         11    1    3    3    0    0 -0.11819840948E+02  0.10032197657E+02  0.33988102259E+01  0.15871532411E+02  0.51100000000E-03 0. -1.
        -11    1    3    3    0    0 -0.83128655231E+01  0.38242171181E+01 -0.12645777440E+01  0.92372900194E+01  0.51100000000E-03 0.  1.
        -12    1    3    3    0    0 -0.15253490907E+02  0.13965050489E+02 -0.38361815332E+01  0.21033494925E+02  0.00000000000E+00 0.  1.
</event>
<event>
 7    1  0.4119299E-008  0.4614232E+02  0.7816164E-02  0.1320468E+00
        -11   -1    0    0    0    0  0.00000000000E+00  0.00000000000E+00  0.45593999997E+02  0.45594000000E+02  0.51100000000E-03 0.  1.
         11   -1    0    0    0    0 -0.00000000000E+00 -0.00000000000E+00 -0.45593999997E+02  0.45594000000E+02  0.51100000000E-03 0. -1.
    9900012    2    1    2    0    0 -0.20675391948E+02  0.38720274100E+02 -0.10118401388E+02  0.46142317574E+02  0.99999982914E+01 0.  0.
        -12    1    1    2    0    0  0.20675391948E+02 -0.38720274100E+02  0.10118401388E+02  0.45045682426E+02  0.00000000000E+00 0.  1.
         11    1    3    3    0    0 -0.96123996644E+00  0.32233596253E+01 -0.87149673293E+00  0.34746994638E+01  0.51100000000E-03 0. -1.
        -11    1    3    3    0    0 -0.34588346522E+00 -0.50200738849E+00 -0.65715977478E+00  0.89638497327E+00  0.51100000000E-03 0.  1.
        -12    1    3    3    0    0 -0.19368268516E+02  0.35998921863E+02 -0.85897448801E+01  0.41771233137E+02  0.00000000000E+00 0.  1.
</event>
<event>
 7    1  0.4119299E-008  0.4614232E+02  0.7816164E-02  0.1320468E+00
        -11   -1    0    0    0    0  0.00000000000E+00  0.00000000000E+00  0.45593999997E+02  0.45594000000E+02  0.51100000000E-03 0.  1.
         11   -1    0    0    0    0 -0.00000000000E+00 -0.00000000000E+00 -0.45593999997E+02  0.45594000000E+02  0.51100000000E-03 0. -1.
    9900012    2    1    2    0    0  0.20388193850E+01 -0.20301149025E+02 -0.40159931841E+02  0.46142316947E+02  0.99999925798E+01 0.  0.
        -12    1    1    2    0    0 -0.20388193850E+01  0.20301149025E+02  0.40159931841E+02  0.45045683053E+02  0.00000000000E+00 0.  1.
         11    1    3    3    0    0 -0.14157261608E+00 -0.14094025663E+02 -0.18212656875E+02  0.23029599929E+02  0.51100000000E-03 0. -1.
        -11    1    3    3    0    0  0.85482309145E-01 -0.58523740389E+00 -0.67227944769E+01  0.67487610629E+01  0.51100000000E-03 0.  1.
         12    1    3    3    0    0  0.20949096919E+01 -0.56218859577E+01 -0.15224480489E+02  0.16363955955E+02  0.00000000000E+00 0. -1.
</event>
<event>
 7    1  0.4119299E-008  0.4614232E+02  0.7816164E-02  0.1320468E+00
        -11   -1    0    0    0    0  0.00000000000E+00  0.00000000000E+00  0.45593999997E+02  0.45594000000E+02  0.51100000000E-03 0.  1.
         11   -1    0    0    0    0 -0.00000000000E+00 -0.00000000000E+00 -0.45593999997E+02  0.45594000000E+02  0.51100000000E-03 0. -1.
    9900012    2    1    2    0    0  0.50236948400E+00  0.31199150835E+02 -0.32488061431E+02  0.46142317372E+02  0.99999964500E+01 0.  0.
        -12    1    1    2    0    0 -0.50236948400E+00 -0.31199150835E+02  0.32488061431E+02  0.45045682628E+02  0.00000000000E+00 0.  1.
         11    1    3    3    0    0  0.32829346483E+01  0.81862533766E+01 -0.10706510784E+02  0.13871617702E+02  0.51100000000E-03 0. -1.
        -11    1    3    3    0    0 -0.10835772881E+00 -0.30146712773E+00 -0.14583485187E+00  0.35198280020E+00  0.51100000000E-03 0.  1.
         12    1    3    3    0    0 -0.26722074355E+01  0.23314364586E+02 -0.21635715795E+02  0.31918716869E+02  0.00000000000E+00 0. -1.
</event>
<event>
 7    1  0.4119299E-008  0.4614233E+02  0.7816164E-02  0.1320468E+00
        -11   -1    0    0    0    0  0.00000000000E+00  0.00000000000E+00  0.45593999997E+02  0.45594000000E+02  0.51100000000E-03 0.  1.
         11   -1    0    0    0    0 -0.00000000000E+00 -0.00000000000E+00 -0.45593999997E+02  0.45594000000E+02  0.51100000000E-03 0. -1.
    9900012    2    1    2    0    0  0.11003354035E+02 -0.86348503780E+01 -0.42819127222E+02  0.46142333204E+02  0.10000140819E+02 0.  0.
        -12    1    1    2    0    0 -0.11003354035E+02  0.86348503780E+01  0.42819127222E+02  0.45045666796E+02  0.00000000000E+00 0.  1.
         11    1    3    3    0    0  0.68193457359E+01 -0.21113606701E+01 -0.15488918392E+02  0.17054850142E+02  0.51100000000E-03 0. -1.
        -11    1    3    3    0    0 -0.15834244155E+01 -0.66068292431E+00 -0.41026503570E+01  0.44469624486E+01  0.51100000000E-03 0.  1.
         12    1    3    3    0    0  0.57674327143E+01 -0.58628067836E+01 -0.23227558473E+02  0.24640520613E+02  0.00000000000E+00 0. -1.
</event>
<event>
 7    1  0.4119299E-008  0.4614231E+02  0.7816164E-02  0.1320468E+00
        -11   -1    0    0    0    0  0.00000000000E+00  0.00000000000E+00  0.45593999997E+02  0.45594000000E+02  0.51100000000E-03 0. -1.
         11   -1    0    0    0    0 -0.00000000000E+00 -0.00000000000E+00 -0.45593999997E+02  0.45594000000E+02  0.51100000000E-03 0.  1.
    9900012    2    1    2    0    0 -0.33231781712E+02 -0.25194940000E+02  0.17028726011E+02  0.46142314003E+02  0.99999657302E+01 0.  0.
        -12    1    1    2    0    0  0.33231781712E+02  0.25194940000E+02 -0.17028726011E+02  0.45045685997E+02  0.00000000000E+00 0.  1.
         11    1    3    3    0    0 -0.31663019136E+01 -0.90605521897E+00  0.40214936153E+00  0.33178499421E+01  0.51100000000E-03 0.  1.
        -11    1    3    3    0    0 -0.27577319316E+02 -0.19963073999E+02  0.16500513581E+02  0.37832523215E+02  0.51100000000E-03 0. -1.
         12    1    3    3    0    0 -0.24881604824E+01 -0.43258107822E+01  0.12606306942E+00  0.49919408457E+01  0.00000000000E+00 0. -1.
</event>
<event>
 7    1  0.4119299E-008  0.4614232E+02  0.7816164E-02  0.1320468E+00
        -11   -1    0    0    0    0  0.00000000000E+00  0.00000000000E+00  0.45593999997E+02  0.45594000000E+02  0.51100000000E-03 0.  1.
         11   -1    0    0    0    0 -0.00000000000E+00 -0.00000000000E+00 -0.45593999997E+02  0.45594000000E+02  0.51100000000E-03 0. -1.
    9900012    2    1    2    0    0 -0.12317748454E+02 -0.32441819317E+01 -0.43207197125E+02  0.46142317335E+02  0.99999961102E+01 0.  0.
        -12    1    1    2    0    0  0.12317748454E+02  0.32441819317E+01  0.43207197125E+02  0.45045682665E+02  0.00000000000E+00 0.  1.
         11    1    3    3    0    0 -0.13070670667E+01 -0.21686555800E+01 -0.42399372466E+01  0.49384774433E+01  0.51100000000E-03 0.  1.
        -11    1    3    3    0    0  0.12393485968E+00 -0.12431446809E+01 -0.11461145897E+02  0.11529034395E+02  0.51100000000E-03 0. -1.
        -12    1    3    3    0    0 -0.11134616247E+02  0.16761832921E+00 -0.27506113981E+02  0.29674805496E+02  0.00000000000E+00 0.  1.
</event>
<event>
 7    1  0.4119299E-008  0.4614232E+02  0.7816164E-02  0.1320468E+00
        -11   -1    0    0    0    0  0.00000000000E+00  0.00000000000E+00  0.45593999997E+02  0.45594000000E+02  0.51100000000E-03 0.  1.
         11   -1    0    0    0    0 -0.00000000000E+00 -0.00000000000E+00 -0.45593999997E+02  0.45594000000E+02  0.51100000000E-03 0. -1.
    9900012    2    1    2    0    0 -0.44189176975E+02  0.80882104931E+01 -0.33182775619E+01  0.46142317891E+02  0.10000001183E+02 0.  0.
        -12    1    1    2    0    0  0.44189176975E+02 -0.80882104931E+01  0.33182775619E+01  0.45045682109E+02  0.00000000000E+00 0.  1.
         11    1    3    3    0    0 -0.14865829884E+02  0.47779583199E+01 -0.47406628953E+01  0.16318568221E+02  0.51100000000E-03 0. -1.
        -11    1    3    3    0    0 -0.84311745912E+01  0.13910997236E+01  0.22187148879E+01  0.88285083362E+01  0.51100000000E-03 0.  1.
        -12    1    3    3    0    0 -0.20892172500E+02  0.19191524496E+01 -0.79632955445E+00  0.20995241333E+02  0.00000000000E+00 0.  1.
</event>
<event>
 7    1  0.4119299E-008  0.4614232E+02  0.7816164E-02  0.1320468E+00
        -11   -1    0    0    0    0  0.00000000000E+00  0.00000000000E+00  0.45593999997E+02  0.45594000000E+02  0.51100000000E-03 0. -1.
         11   -1    0    0    0    0 -0.00000000000E+00 -0.00000000000E+00 -0.45593999997E+02  0.45594000000E+02  0.51100000000E-03 0.  1.
    9900012    2    1    2    0    0  0.37563346254E+02  0.25539723353E+01  0.24730253170E+02  0.46142321202E+02  0.10000031380E+02 0.  0.
        -12    1    1    2    0    0 -0.37563346254E+02 -0.25539723353E+01 -0.24730253170E+02  0.45045678798E+02  0.00000000000E+00 0.  1.
         11    1    3    3    0    0  0.22916394517E+02  0.48501604657E+01  0.17314368958E+02  0.29128552434E+02  0.51100000000E-03 0. -1.
        -11    1    3    3    0    0  0.14186090638E+02 -0.19646612371E+01  0.60731899936E+01  0.15555985932E+02  0.51100000000E-03 0.  1.
        -12    1    3    3    0    0  0.46086109881E+00 -0.33152689332E+00  0.13426942190E+01  0.14577828368E+01  0.00000000000E+00 0.  1.
</event>
<event>
 7    1  0.4119299E-008  0.4614232E+02  0.7816164E-02  0.1320468E+00
        -11   -1    0    0    0    0  0.00000000000E+00  0.00000000000E+00  0.45593999997E+02  0.45594000000E+02  0.51100000000E-03 0. -1.
         11   -1    0    0    0    0 -0.00000000000E+00 -0.00000000000E+00 -0.45593999997E+02  0.45594000000E+02  0.51100000000E-03 0.  1.
    9900012    2    1    2    0    0  0.45508551820E+01 -0.42394242790E+02  0.14530364326E+02  0.46142316610E+02  0.99999895017E+01 0.  0.
        -12    1    1    2    0    0 -0.45508551820E+01  0.42394242790E+02 -0.14530364326E+02  0.45045683390E+02  0.00000000000E+00 0.  1.
         11    1    3    3    0    0 -0.49109146626E+00 -0.19687309914E+02  0.51655270659E+01  0.20359617202E+02  0.51100000000E-03 0. -1.
        -11    1    3    3    0    0 -0.89072694100E+00 -0.10802777652E+01 -0.17741189887E+00  0.14113361670E+01  0.51100000000E-03 0.  1.
        -12    1    3    3    0    0  0.59326735893E+01 -0.21626655111E+02  0.95422491594E+01  0.24371363241E+02  0.00000000000E+00 0.  1.
</event>
<event>
 7    1  0.4119299E-008  0.4614232E+02  0.7816164E-02  0.1320468E+00
        -11   -1    0    0    0    0  0.00000000000E+00  0.00000000000E+00  0.45593999997E+02  0.45594000000E+02  0.51100000000E-03 0.  1.
         11   -1    0    0    0    0 -0.00000000000E+00 -0.00000000000E+00 -0.45593999997E+02  0.45594000000E+02  0.51100000000E-03 0. -1.
    9900012    2    1    2    0    0  0.34192554758E+02  0.88217520605E+01 -0.27967113911E+02  0.46142316847E+02  0.99999916612E+01 0.  0.
        -12    1    1    2    0    0 -0.34192554758E+02 -0.88217520605E+01  0.27967113911E+02  0.45045683153E+02  0.00000000000E+00 0.  1.
         11    1    3    3    0    0  0.13922714565E+02  0.19272767425E+01 -0.90412156287E+01  0.16712269648E+02  0.51100000000E-03 0. -1.
        -11    1    3    3    0    0  0.89629713562E+01 -0.25882635640E+00 -0.95010682413E+01  0.13064154952E+02  0.51100000000E-03 0.  1.
        -12    1    3    3    0    0  0.11306868837E+02  0.71533016744E+01 -0.94248300405E+01  0.16365892247E+02  0.00000000000E+00 0.  1.
</event>
<event>
 7    1  0.4119299E-008  0.4614232E+02  0.7816164E-02  0.1320468E+00
        -11   -1    0    0    0    0  0.00000000000E+00  0.00000000000E+00  0.45593999997E+02  0.45594000000E+02  0.51100000000E-03 0.  1.
         11   -1    0    0    0    0 -0.00000000000E+00 -0.00000000000E+00 -0.45593999997E+02  0.45594000000E+02  0.51100000000E-03 0. -1.
    9900012    2    1    2    0    0  0.19042927031E+02 -0.12033283104E+02 -0.39008723360E+02  0.46142317962E+02  0.10000001828E+02 0.  0.
        -12    1    1    2    0    0 -0.19042927031E+02  0.12033283104E+02  0.39008723360E+02  0.45045682038E+02  0.00000000000E+00 0.  1.
         11    1    3    3    0    0  0.62817110758E+01 -0.60487742387E+01 -0.15187624292E+02  0.17513180628E+02  0.51100000000E-03 0. -1.
        -11    1    3    3    0    0  0.70938563643E+01 -0.68136454318E+01 -0.17677314278E+02  0.20229582362E+02  0.51100000000E-03 0.  1.
        -12    1    3    3    0    0  0.56673595907E+01  0.82913656614E+00 -0.61437847899E+01  0.83995549715E+01  0.00000000000E+00 0.  1.
</event>
<event>
 7    1  0.4119299E-008  0.4614232E+02  0.7816164E-02  0.1320468E+00
        -11   -1    0    0    0    0  0.00000000000E+00  0.00000000000E+00  0.45593999997E+02  0.45594000000E+02  0.51100000000E-03 0.  1.
         11   -1    0    0    0    0 -0.00000000000E+00 -0.00000000000E+00 -0.45593999997E+02  0.45594000000E+02  0.51100000000E-03 0. -1.
    9900012    2    1    2    0    0  0.10233437388E+02  0.35745332330E+02 -0.25429538269E+02  0.46142318290E+02  0.10000004823E+02 0.  0.
        -12    1    1    2    0    0 -0.10233437388E+02 -0.35745332330E+02  0.25429538269E+02  0.45045681710E+02  0.00000000000E+00 0.  1.
         11    1    3    3    0    0  0.69791619330E+00  0.31504409492E+01 -0.15520777614E+01  0.35806858038E+01  0.51100000000E-03 0. -1.
        -11    1    3    3    0    0  0.42520538037E+01  0.60010453276E+01 -0.90393490260E+01  0.11653426005E+02  0.51100000000E-03 0.  1.
        -12    1    3    3    0    0  0.52834673911E+01  0.26593846053E+02 -0.14838111482E+02  0.30908206481E+02  0.00000000000E+00 0.  1.
</event>
<event>
 7    1  0.4119299E-008  0.4614232E+02  0.7816164E-02  0.1320468E+00
        -11   -1    0    0    0    0  0.00000000000E+00  0.00000000000E+00  0.45593999997E+02  0.45594000000E+02  0.51100000000E-03 0. -1.
         11   -1    0    0    0    0 -0.00000000000E+00 -0.00000000000E+00 -0.45593999997E+02  0.45594000000E+02  0.51100000000E-03 0.  1.
    9900012    2    1    2    0    0 -0.19970788192E+02 -0.28562754442E+02  0.28538574268E+02  0.46142317148E+02  0.99999944091E+01 0.  0.
        -12    1    1    2    0    0  0.19970788192E+02  0.28562754442E+02 -0.28538574268E+02  0.45045682852E+02  0.00000000000E+00 0.  1.
         11    1    3    3    0    0 -0.37814607044E+00 -0.32686921984E+00  0.32860239896E+01  0.33238218753E+01  0.51100000000E-03 0. -1.
        -11    1    3    3    0    0 -0.68162504109E+01 -0.68224809968E+01  0.70343443630E+01  0.11936897314E+02  0.51100000000E-03 0.  1.
         12    1    3    3    0    0 -0.12776391711E+02 -0.21413404225E+02  0.18218205916E+02  0.30881597958E+02  0.00000000000E+00 0. -1.
</event>
<event>
 7    1  0.4119299E-008  0.4614232E+02  0.7816164E-02  0.1320468E+00
        -11   -1    0    0    0    0  0.00000000000E+00  0.00000000000E+00  0.45593999997E+02  0.45594000000E+02  0.51100000000E-03 0.  1.
         11   -1    0    0    0    0 -0.00000000000E+00 -0.00000000000E+00 -0.45593999997E+02  0.45594000000E+02  0.51100000000E-03 0. -1.
    9900012    2    1    2    0    0 -0.69999946249E+01 -0.41009514416E+02 -0.17272321110E+02  0.46142320142E+02  0.10000021710E+02 0.  0.
        -12    1    1    2    0    0  0.69999946249E+01  0.41009514416E+02  0.17272321110E+02  0.45045679858E+02  0.00000000000E+00 0.  1.
         11    1    3    3    0    0 -0.57246246594E+01 -0.15302072329E+02 -0.53171988102E+01  0.17181308114E+02  0.51100000000E-03 0. -1.
        -11    1    3    3    0    0 -0.35246106196E+01 -0.18299407482E+02 -0.85345381890E+01  0.20497061657E+02  0.51100000000E-03 0.  1.
        -12    1    3    3    0    0  0.22492406541E+01 -0.74080346038E+01 -0.34205841111E+01  0.84639503704E+01  0.00000000000E+00 0.  1.
</event>
<event>
 7    1  0.4119299E-008  0.4614232E+02  0.7816164E-02  0.1320468E+00
        -11   -1    0    0    0    0  0.00000000000E+00  0.00000000000E+00  0.45593999997E+02  0.45594000000E+02  0.51100000000E-03 0.  1.
         11   -1    0    0    0    0 -0.00000000000E+00 -0.00000000000E+00 -0.45593999997E+02  0.45594000000E+02  0.51100000000E-03 0. -1.
    9900012    2    1    2    0    0 -0.34795564205E+01  0.26493238013E+02 -0.36264508374E+02  0.46142317178E+02  0.99999946825E+01 0.  0.
        -12    1    1    2    0    0  0.34795564205E+01 -0.26493238013E+02  0.36264508374E+02  0.45045682822E+02  0.00000000000E+00 0.  1.
         11    1    3    3    0    0 -0.28810525584E+01  0.29880767394E+01 -0.88141558016E+01  0.97426079260E+01  0.51100000000E-03 0. -1.
        -11    1    3    3    0    0 -0.33896801501E+00  0.15055327619E+00 -0.12334841807E+01  0.12880407949E+01  0.51100000000E-03 0.  1.
        -12    1    3    3    0    0 -0.25953584705E+00  0.23354607997E+02 -0.26216868392E+02  0.35111668457E+02  0.00000000000E+00 0.  1.
</event>
<event>
 7    1  0.4119299E-008  0.4614232E+02  0.7816164E-02  0.1320468E+00
        -11   -1    0    0    0    0  0.00000000000E+00  0.00000000000E+00  0.45593999997E+02  0.45594000000E+02  0.51100000000E-03 0. -1.
         11   -1    0    0    0    0 -0.00000000000E+00 -0.00000000000E+00 -0.45593999997E+02  0.45594000000E+02  0.51100000000E-03 0.  1.
    9900012    2    1    2    0    0  0.18239595885E+01  0.34285476518E+02  0.29159778556E+02  0.46142318585E+02  0.10000007517E+02 0.  0.
        -12    1    1    2    0    0 -0.18239595885E+01 -0.34285476518E+02 -0.29159778556E+02  0.45045681415E+02  0.00000000000E+00 0.  1.
         11    1    3    3    0    0  0.19048918838E+01  0.25854175641E+02  0.25346145066E+02  0.36255952355E+02  0.51100000000E-03 0. -1.
        -11    1    3    3    0    0  0.35067025008E+00  0.10825011480E+01  0.20059374184E+01  0.23062011073E+01  0.51100000000E-03 0.  1.
        -12    1    3    3    0    0 -0.43160254535E+00  0.73487997286E+01  0.18076960720E+01  0.75801651233E+01  0.00000000000E+00 0.  1.
</event>
<event>
 7    1  0.4119299E-008  0.4614232E+02  0.7816164E-02  0.1320468E+00
        -11   -1    0    0    0    0  0.00000000000E+00  0.00000000000E+00  0.45593999997E+02  0.45594000000E+02  0.51100000000E-03 0. -1.
         11   -1    0    0    0    0 -0.00000000000E+00 -0.00000000000E+00 -0.45593999997E+02  0.45594000000E+02  0.51100000000E-03 0.  1.
    9900012    2    1    2    0    0 -0.22924226735E+02  0.24549084064E+02 -0.30015591115E+02  0.46142318633E+02  0.10000007955E+02 0.  0.
        -12    1    1    2    0    0  0.22924226735E+02 -0.24549084064E+02  0.30015591115E+02  0.45045681367E+02  0.00000000000E+00 0.  1.
         11    1    3    3    0    0 -0.14214107445E+02  0.13129718352E+02 -0.14288618867E+02  0.24054001410E+02  0.51100000000E-03 0.  1.
        -11    1    3    3    0    0 -0.60779450334E+01  0.10857097133E+02 -0.14566438966E+02  0.19157221051E+02  0.51100000000E-03 0. -1.
        -12    1    3    3    0    0 -0.26321742568E+01  0.56226857925E+00 -0.11605332825E+01  0.29310961726E+01  0.00000000000E+00 0.  1.
</event>
<event>
 7    1  0.4119299E-008  0.4614232E+02  0.7816164E-02  0.1320468E+00
        -11   -1    0    0    0    0  0.00000000000E+00  0.00000000000E+00  0.45593999997E+02  0.45594000000E+02  0.51100000000E-03 0.  1.
         11   -1    0    0    0    0 -0.00000000000E+00 -0.00000000000E+00 -0.45593999997E+02  0.45594000000E+02  0.51100000000E-03 0. -1.
    9900012    2    1    2    0    0 -0.13056773312E+02  0.42373074987E+02 -0.79471176865E+01  0.46142317713E+02  0.99999995625E+01 0.  0.
        -12    1    1    2    0    0  0.13056773312E+02 -0.42373074987E+02  0.79471176865E+01  0.45045682287E+02  0.00000000000E+00 0.  1.
         11    1    3    3    0    0 -0.77111722977E+01  0.20241157362E+02 -0.84693704556E+00  0.21676806318E+02  0.51100000000E-03 0.  1.
        -11    1    3    3    0    0 -0.62938348740E+01  0.19956708936E+02 -0.70850919798E+01  0.22092557969E+02  0.51100000000E-03 0. -1.
         12    1    3    3    0    0  0.94823385973E+00  0.21752086887E+01 -0.15088661167E-01  0.23729534255E+01  0.00000000000E+00 0. -1.
</event>
<event>
 7    1  0.4119299E-008  0.4614232E+02  0.7816164E-02  0.1320468E+00
        -11   -1    0    0    0    0  0.00000000000E+00  0.00000000000E+00  0.45593999997E+02  0.45594000000E+02  0.51100000000E-03 0.  1.
         11   -1    0    0    0    0 -0.00000000000E+00 -0.00000000000E+00 -0.45593999997E+02  0.45594000000E+02  0.51100000000E-03 0. -1.
    9900012    2    1    2    0    0  0.36576781236E+02 -0.21036232220E+02 -0.15771140359E+02  0.46142324738E+02  0.10000063616E+02 0.  0.
        -12    1    1    2    0    0 -0.36576781236E+02  0.21036232220E+02  0.15771140359E+02  0.45045675262E+02  0.00000000000E+00 0.  1.
         11    1    3    3    0    0  0.24103052961E+02 -0.85692161542E+01 -0.94185479205E+01  0.27259817914E+02  0.51100000000E-03 0. -1.
        -11    1    3    3    0    0  0.29777173760E+01 -0.25621600942E+01 -0.48149440130E+00  0.39576890023E+01  0.51100000000E-03 0.  1.
        -12    1    3    3    0    0  0.94960108996E+01 -0.99048559714E+01 -0.58710980374E+01  0.14924817821E+02  0.00000000000E+00 0.  1.
</event>
<event>
 7    1  0.4119299E-008  0.4614232E+02  0.7816164E-02  0.1320468E+00
        -11   -1    0    0    0    0  0.00000000000E+00  0.00000000000E+00  0.45593999997E+02  0.45594000000E+02  0.51100000000E-03 0.  1.
         11   -1    0    0    0    0 -0.00000000000E+00 -0.00000000000E+00 -0.45593999997E+02  0.45594000000E+02  0.51100000000E-03 0. -1.
    9900012    2    1    2    0    0  0.14693761562E+02 -0.39628843863E+02 -0.15580808375E+02  0.46142317806E+02  0.10000000406E+02 0.  0.
        -12    1    1    2    0    0 -0.14693761562E+02  0.39628843863E+02  0.15580808375E+02  0.45045682194E+02  0.00000000000E+00 0.  1.
         11    1    3    3    0    0  0.59013383101E+01 -0.15511207418E+02 -0.94749227667E+01  0.19110141577E+02  0.51100000000E-03 0. -1.
        -11    1    3    3    0    0  0.68605832943E+01 -0.23115884120E+02 -0.51549735424E+01  0.24657361057E+02  0.51100000000E-03 0.  1.
        -12    1    3    3    0    0  0.19318399579E+01 -0.10017523250E+01 -0.95091206549E+00  0.23748151717E+01  0.00000000000E+00 0.  1.
</event>
<event>
 7    1  0.4119299E-008  0.4614232E+02  0.7816164E-02  0.1320468E+00
        -11   -1    0    0    0    0  0.00000000000E+00  0.00000000000E+00  0.45593999997E+02  0.45594000000E+02  0.51100000000E-03 0.  1.
         11   -1    0    0    0    0 -0.00000000000E+00 -0.00000000000E+00 -0.45593999997E+02  0.45594000000E+02  0.51100000000E-03 0. -1.
    9900012    2    1    2    0    0  0.22890327413E+02  0.30358384817E+02 -0.24156050011E+02  0.46142319076E+02  0.10000011993E+02 0.  0.
        -12    1    1    2    0    0 -0.22890327413E+02 -0.30358384817E+02  0.24156050011E+02  0.45045680924E+02  0.00000000000E+00 0.  1.
         11    1    3    3    0    0  0.94375923473E+01  0.93033259706E+01 -0.75644382366E+01  0.15259120208E+02  0.51100000000E-03 0. -1.
        -11    1    3    3    0    0  0.11383138105E+02  0.18113486973E+02 -0.10552854974E+02  0.23854496260E+02  0.51100000000E-03 0.  1.
        -12    1    3    3    0    0  0.20695969599E+01  0.29415718731E+01 -0.60387568005E+01  0.70287026084E+01  0.00000000000E+00 0.  1.
</event>
<event>
 7    1  0.4119299E-008  0.4614232E+02  0.7816164E-02  0.1320468E+00
        -11   -1    0    0    0    0  0.00000000000E+00  0.00000000000E+00  0.45593999997E+02  0.45594000000E+02  0.51100000000E-03 0.  1.
         11   -1    0    0    0    0 -0.00000000000E+00 -0.00000000000E+00 -0.45593999997E+02  0.45594000000E+02  0.51100000000E-03 0. -1.
    9900012    2    1    2    0    0 -0.25556935314E+02 -0.34534907593E+02 -0.13538707587E+02  0.46142318873E+02  0.10000010139E+02 0.  0.
        -12    1    1    2    0    0  0.25556935314E+02  0.34534907593E+02  0.13538707587E+02  0.45045681127E+02  0.00000000000E+00 0.  1.
         11    1    3    3    0    0 -0.88934476811E+01 -0.72227038636E+01 -0.14904180998E+01  0.11553450096E+02  0.51100000000E-03 0. -1.
        -11    1    3    3    0    0  0.20836716191E+00 -0.30590202157E+00  0.25702032207E+00  0.45061361280E+00  0.51100000000E-03 0.  1.
         12    1    3    3    0    0 -0.16871854794E+02 -0.27006301708E+02 -0.12305309809E+02  0.34138255164E+02  0.00000000000E+00 0. -1.
</event>
<event>
 7    1  0.4119299E-008  0.4614232E+02  0.7816164E-02  0.1320468E+00
        -11   -1    0    0    0    0  0.00000000000E+00  0.00000000000E+00  0.45593999997E+02  0.45594000000E+02  0.51100000000E-03 0. -1.
         11   -1    0    0    0    0 -0.00000000000E+00 -0.00000000000E+00 -0.45593999997E+02  0.45594000000E+02  0.51100000000E-03 0.  1.
    9900012    2    1    2    0    0 -0.31969712257E+02 -0.89041628320E+01  0.30459265289E+02  0.46142318082E+02  0.10000002925E+02 0.  0.
        -12    1    1    2    0    0  0.31969712257E+02  0.89041628320E+01 -0.30459265289E+02  0.45045681918E+02  0.00000000000E+00 0.  1.
         11    1    3    3    0    0 -0.17976683171E+02 -0.48197099012E+01  0.13669348507E+02  0.23092029582E+02  0.51100000000E-03 0. -1.
        -11    1    3    3    0    0 -0.90948811036E+01 -0.53887958630E+01  0.12789609794E+02  0.16593073919E+02  0.51100000000E-03 0.  1.
        -12    1    3    3    0    0 -0.48981479823E+01  0.13043429322E+01  0.40003069891E+01  0.64572145813E+01  0.00000000000E+00 0.  1.
</event>
<event>
 7    1  0.4119299E-008  0.4614232E+02  0.7816164E-02  0.1320468E+00
        -11   -1    0    0    0    0  0.00000000000E+00  0.00000000000E+00  0.45593999997E+02  0.45594000000E+02  0.51100000000E-03 0. -1.
         11   -1    0    0    0    0 -0.00000000000E+00 -0.00000000000E+00 -0.45593999997E+02  0.45594000000E+02  0.51100000000E-03 0.  1.
    9900012    2    1    2    0    0 -0.35359254100E+02 -0.27153821779E+02 -0.64425634942E+01  0.46142317498E+02  0.99999975994E+01 0.  0.
        -12    1    1    2    0    0  0.35359254100E+02  0.27153821779E+02  0.64425634942E+01  0.45045682502E+02  0.00000000000E+00 0.  1.
         11    1    3    3    0    0 -0.11532610029E+02 -0.13307835029E+02 -0.19157887978E+01  0.17713548889E+02  0.51100000000E-03 0. -1.
        -11    1    3    3    0    0 -0.96472314994E+01 -0.76500279039E+01 -0.40001471972E+01  0.12945778478E+02  0.51100000000E-03 0.  1.
        -12    1    3    3    0    0 -0.14179412571E+02 -0.61959588458E+01 -0.52662749913E+00  0.15482990131E+02  0.00000000000E+00 0.  1.
</event>
<event>
 7    1  0.4119299E-008  0.4614232E+02  0.7816164E-02  0.1320468E+00
        -11   -1    0    0    0    0  0.00000000000E+00  0.00000000000E+00  0.45593999997E+02  0.45594000000E+02  0.51100000000E-03 0.  1.
         11   -1    0    0    0    0 -0.00000000000E+00 -0.00000000000E+00 -0.45593999997E+02  0.45594000000E+02  0.51100000000E-03 0. -1.
    9900012    2    1    2    0    0  0.18099257299E+02 -0.21759175736E+02 -0.35043809938E+02  0.46142318093E+02  0.10000003028E+02 0.  0.
        -12    1    1    2    0    0 -0.18099257299E+02  0.21759175736E+02  0.35043809938E+02  0.45045681907E+02  0.00000000000E+00 0.  1.
         11    1    3    3    0    0  0.56111224847E+01 -0.93179744118E+01 -0.17957922138E+02  0.20995149688E+02  0.51100000000E-03 0.  1.
        -11    1    3    3    0    0  0.65407837621E+01 -0.52244453938E+01 -0.11600352121E+02  0.14305413363E+02  0.51100000000E-03 0. -1.
        -12    1    3    3    0    0  0.59473510525E+01 -0.72167559300E+01 -0.54855356796E+01  0.10841755042E+02  0.00000000000E+00 0.  1.
</event>
<event>
 7    1  0.4119299E-008  0.4614232E+02  0.7816164E-02  0.1320468E+00
        -11   -1    0    0    0    0  0.00000000000E+00  0.00000000000E+00  0.45593999997E+02  0.45594000000E+02  0.51100000000E-03 0.  1.
         11   -1    0    0    0    0 -0.00000000000E+00 -0.00000000000E+00 -0.45593999997E+02  0.45594000000E+02  0.51100000000E-03 0. -1.
    9900012    2    1    2    0    0 -0.15532893171E+02 -0.28890789728E+02 -0.30873370716E+02  0.46142317402E+02  0.99999967232E+01 0.  0.
        -12    1    1    2    0    0  0.15532893171E+02  0.28890789728E+02  0.30873370716E+02  0.45045682598E+02  0.00000000000E+00 0.  1.
         11    1    3    3    0    0 -0.10215918944E+02 -0.11520998565E+02 -0.16021514612E+02  0.22221326210E+02  0.51100000000E-03 0. -1.
        -11    1    3    3    0    0  0.19043792353E+00 -0.13002229424E+01  0.62623521352E-01  0.13155866635E+01  0.51100000000E-03 0.  1.
        -12    1    3    3    0    0 -0.55074121505E+01 -0.16069568221E+02 -0.14914479626E+02  0.22605404529E+02  0.00000000000E+00 0.  1.
</event>
<event>
 7    1  0.4119299E-008  0.4614232E+02  0.7816164E-02  0.1320468E+00
        -11   -1    0    0    0    0  0.00000000000E+00  0.00000000000E+00  0.45593999997E+02  0.45594000000E+02  0.51100000000E-03 0.  1.
         11   -1    0    0    0    0 -0.00000000000E+00 -0.00000000000E+00 -0.45593999997E+02  0.45594000000E+02  0.51100000000E-03 0. -1.
    9900012    2    1    2    0    0  0.28143680063E+02  0.27276115822E+02 -0.22204960537E+02  0.46142317696E+02  0.99999994036E+01 0.  0.
        -12    1    1    2    0    0 -0.28143680063E+02 -0.27276115822E+02  0.22204960537E+02  0.45045682304E+02  0.00000000000E+00 0.  1.
         11    1    3    3    0    0 -0.32481720361E+00  0.20667085696E+01 -0.39505991622E+00  0.21290521661E+01  0.51100000000E-03 0. -1.
        -11    1    3    3    0    0  0.11373532744E+02  0.76016781775E+01 -0.82474714160E+01  0.15973839338E+02  0.51100000000E-03 0.  1.
         12    1    3    3    0    0  0.17094964523E+02  0.17607729075E+02 -0.13562429205E+02  0.28039426191E+02  0.00000000000E+00 0. -1.
</event>
<event>
 7    1  0.4119299E-008  0.4614232E+02  0.7816164E-02  0.1320468E+00
        -11   -1    0    0    0    0  0.00000000000E+00  0.00000000000E+00  0.45593999997E+02  0.45594000000E+02  0.51100000000E-03 0.  1.
         11   -1    0    0    0    0 -0.00000000000E+00 -0.00000000000E+00 -0.45593999997E+02  0.45594000000E+02  0.51100000000E-03 0. -1.
    9900012    2    1    2    0    0 -0.36408858925E+02 -0.39739726971E+01 -0.26224341823E+02  0.46142316841E+02  0.99999916111E+01 0.  0.
        -12    1    1    2    0    0  0.36408858925E+02  0.39739726971E+01  0.26224341823E+02  0.45045683159E+02  0.00000000000E+00 0.  1.
         11    1    3    3    0    0 -0.12222540304E+02  0.21303768940E+01 -0.77484472294E+01  0.14627625642E+02  0.51100000000E-03 0. -1.
        -11    1    3    3    0    0 -0.17195300302E+01  0.39891315396E+00 -0.95768935088E-01  0.17677916108E+01  0.51100000000E-03 0.  1.
        -12    1    3    3    0    0 -0.22466788591E+02 -0.65032627451E+01 -0.18380125658E+02  0.29746899589E+02  0.00000000000E+00 0.  1.
</event>
<event>
 7    1  0.4119299E-008  0.4614232E+02  0.7816164E-02  0.1320468E+00
        -11   -1    0    0    0    0  0.00000000000E+00  0.00000000000E+00  0.45593999997E+02  0.45594000000E+02  0.51100000000E-03 0. -1.
         11   -1    0    0    0    0 -0.00000000000E+00 -0.00000000000E+00 -0.45593999997E+02  0.45594000000E+02  0.51100000000E-03 0.  1.
    9900012    2    1    2    0    0 -0.52381991796E+01 -0.97746750234E+01  0.43659255034E+02  0.46142317049E+02  0.99999935042E+01 0.  0.
        -12    1    1    2    0    0  0.52381991796E+01  0.97746750234E+01 -0.43659255034E+02  0.45045682951E+02  0.00000000000E+00 0.  1.
         11    1    3    3    0    0 -0.26174659830E+01 -0.79771239360E+01  0.27798851318E+02  0.29038969839E+02  0.51100000000E-03 0. -1.
        -11    1    3    3    0    0 -0.35879583409E+01 -0.15389866777E+01  0.15582749641E+02  0.16064370877E+02  0.51100000000E-03 0.  1.
        -12    1    3    3    0    0  0.96722514431E+00 -0.25856440969E+00  0.27765407462E+00  0.10389763322E+01  0.00000000000E+00 0.  1.
</event>
<event>
 7    1  0.4119299E-008  0.4614232E+02  0.7816164E-02  0.1320468E+00
        -11   -1    0    0    0    0  0.00000000000E+00  0.00000000000E+00  0.45593999997E+02  0.45594000000E+02  0.51100000000E-03 0.  1.
         11   -1    0    0    0    0 -0.00000000000E+00 -0.00000000000E+00 -0.45593999997E+02  0.45594000000E+02  0.51100000000E-03 0. -1.
    9900012    2    1    2    0    0  0.35138312080E+02 -0.23772028413E+01 -0.28084896225E+02  0.46142318019E+02  0.10000002350E+02 0.  0.
        -12    1    1    2    0    0 -0.35138312080E+02  0.23772028413E+01  0.28084896225E+02  0.45045681981E+02  0.00000000000E+00 0.  1.
         11    1    3    3    0    0  0.24151758819E+02 -0.46208880578E+01 -0.17478816472E+02  0.30169008701E+02  0.51100000000E-03 0. -1.
        -11    1    3    3    0    0  0.28614208262E+01  0.24757379214E+01 -0.28373964856E+01  0.47294636565E+01  0.51100000000E-03 0.  1.
         12    1    3    3    0    0  0.81251324349E+01 -0.23205270490E+00 -0.77686832679E+01  0.11243845662E+02  0.00000000000E+00 0. -1.
</event>
<event>
 7    1  0.4119299E-008  0.4614232E+02  0.7816164E-02  0.1320468E+00
        -11   -1    0    0    0    0  0.00000000000E+00  0.00000000000E+00  0.45593999997E+02  0.45594000000E+02  0.51100000000E-03 0.  1.
         11   -1    0    0    0    0 -0.00000000000E+00 -0.00000000000E+00 -0.45593999997E+02  0.45594000000E+02  0.51100000000E-03 0. -1.
    9900012    2    1    2    0    0  0.15075425201E+02 -0.32957624292E+02 -0.26751448828E+02  0.46142318094E+02  0.10000003038E+02 0.  0.
        -12    1    1    2    0    0 -0.15075425201E+02  0.32957624292E+02  0.26751448828E+02  0.45045681906E+02  0.00000000000E+00 0.  1.
         11    1    3    3    0    0  0.26327747877E+01 -0.88559406579E+01 -0.81250705155E+01  0.12303493779E+02  0.51100000000E-03 0. -1.
        -11    1    3    3    0    0 -0.20869230601E+00 -0.45837182926E+01 -0.11087204171E+01  0.47205176717E+01  0.51100000000E-03 0.  1.
         12    1    3    3    0    0  0.12651342719E+02 -0.19517965341E+02 -0.17517657895E+02  0.29118306644E+02  0.00000000000E+00 0. -1.
</event>
<event>
 7    1  0.4119299E-008  0.4614232E+02  0.7816164E-02  0.1320468E+00
        -11   -1    0    0    0    0  0.00000000000E+00  0.00000000000E+00  0.45593999997E+02  0.45594000000E+02  0.51100000000E-03 0.  1.
         11   -1    0    0    0    0 -0.00000000000E+00 -0.00000000000E+00 -0.45593999997E+02  0.45594000000E+02  0.51100000000E-03 0. -1.
    9900012    2    1    2    0    0 -0.40807395683E+02  0.53191982648E+01 -0.18318735762E+02  0.46142317715E+02  0.99999995755E+01 0.  0.
        -12    1    1    2    0    0  0.40807395683E+02 -0.53191982648E+01  0.18318735762E+02  0.45045682285E+02  0.00000000000E+00 0.  1.
         11    1    3    3    0    0 -0.33889297980E+02  0.65767984030E+01 -0.14994363616E+02  0.37637344955E+02  0.51100000000E-03 0. -1.
        -11    1    3    3    0    0 -0.55470204473E+01 -0.11215293984E+01 -0.40390998098E+01  0.69528117743E+01  0.51100000000E-03 0.  1.
         12    1    3    3    0    0 -0.13710772564E+01 -0.13607073980E+00  0.71472766376E+00  0.15521609848E+01  0.00000000000E+00 0. -1.
</event>
<event>
 7    1  0.4119299E-008  0.4614232E+02  0.7816164E-02  0.1320468E+00
        -11   -1    0    0    0    0  0.00000000000E+00  0.00000000000E+00  0.45593999997E+02  0.45594000000E+02  0.51100000000E-03 0.  1.
         11   -1    0    0    0    0 -0.00000000000E+00 -0.00000000000E+00 -0.45593999997E+02  0.45594000000E+02  0.51100000000E-03 0. -1.
    9900012    2    1    2    0    0  0.33860598736E+01 -0.40599108093E+02 -0.19218751719E+02  0.46142318775E+02  0.10000009245E+02 0.  0.
        -12    1    1    2    0    0 -0.33860598736E+01  0.40599108093E+02  0.19218751719E+02  0.45045681225E+02  0.00000000000E+00 0.  1.
         11    1    3    3    0    0  0.19176158671E+01 -0.15168363582E+02 -0.48924642596E+01  0.16052810070E+02  0.51100000000E-03 0. -1.
        -11    1    3    3    0    0 -0.15651133103E+01 -0.17457349695E+02 -0.71055136979E+01  0.18912878237E+02  0.51100000000E-03 0.  1.
         12    1    3    3    0    0  0.30335573168E+01 -0.79733948162E+01 -0.72207737620E+01  0.11176630468E+02  0.00000000000E+00 0. -1.
</event>
<event>
 7    1  0.4119299E-008  0.4614232E+02  0.7816164E-02  0.1320468E+00
        -11   -1    0    0    0    0  0.00000000000E+00  0.00000000000E+00  0.45593999997E+02  0.45594000000E+02  0.51100000000E-03 0.  1.
         11   -1    0    0    0    0 -0.00000000000E+00 -0.00000000000E+00 -0.45593999997E+02  0.45594000000E+02  0.51100000000E-03 0. -1.
    9900012    2    1    2    0    0 -0.18067706729E+02 -0.36506242808E+02 -0.19234492098E+02  0.46142317891E+02  0.10000001186E+02 0.  0.
        -12    1    1    2    0    0  0.18067706729E+02  0.36506242808E+02  0.19234492098E+02  0.45045682109E+02  0.00000000000E+00 0.  1.
         11    1    3    3    0    0 -0.12197028007E+01 -0.75035325383E+01 -0.58211609528E+01  0.95747893228E+01  0.51100000000E-03 0. -1.
        -11    1    3    3    0    0 -0.45095216859E+01 -0.71592427842E+01 -0.61169667560E+01  0.10440681282E+02  0.51100000000E-03 0.  1.
        -12    1    3    3    0    0 -0.12338482243E+02 -0.21843467485E+02 -0.72963643888E+01  0.26126847286E+02  0.00000000000E+00 0.  1.
</event>
<event>
 7    1  0.4119299E-008  0.4614232E+02  0.7816164E-02  0.1320468E+00
        -11   -1    0    0    0    0  0.00000000000E+00  0.00000000000E+00  0.45593999997E+02  0.45594000000E+02  0.51100000000E-03 0.  1.
         11   -1    0    0    0    0 -0.00000000000E+00 -0.00000000000E+00 -0.45593999997E+02  0.45594000000E+02  0.51100000000E-03 0. -1.
    9900012    2    1    2    0    0  0.46345127356E+01  0.17925945112E+02 -0.41064525759E+02  0.46142317718E+02  0.99999996077E+01 0.  0.
        -12    1    1    2    0    0 -0.46345127356E+01 -0.17925945112E+02  0.41064525759E+02  0.45045682282E+02  0.00000000000E+00 0.  1.
         11    1    3    3    0    0  0.28232108237E+01  0.14635473825E+02 -0.37529829119E+02  0.40381377978E+02  0.51100000000E-03 0. -1.
        -11    1    3    3    0    0  0.20785321078E+01  0.23153396748E+01 -0.35870799285E+01  0.47484983108E+01  0.51100000000E-03 0.  1.
        -12    1    3    3    0    0 -0.26723019592E+00  0.97513161204E+00  0.52383288942E-01  0.10124414291E+01  0.00000000000E+00 0.  1.
</event>
<event>
 7    1  0.4119299E-008  0.4614232E+02  0.7816164E-02  0.1320468E+00
        -11   -1    0    0    0    0  0.00000000000E+00  0.00000000000E+00  0.45593999997E+02  0.45594000000E+02  0.51100000000E-03 0.  1.
         11   -1    0    0    0    0 -0.00000000000E+00 -0.00000000000E+00 -0.45593999997E+02  0.45594000000E+02  0.51100000000E-03 0. -1.
    9900012    2    1    2    0    0 -0.76988881761E+01 -0.43739348730E+02 -0.75306035791E+01  0.46142317668E+02  0.99999991522E+01 0.  0.
        -12    1    1    2    0    0  0.76988881761E+01  0.43739348730E+02  0.75306035791E+01  0.45045682332E+02  0.00000000000E+00 0.  1.
         11    1    3    3    0    0 -0.35261690715E+01 -0.12577706275E+02 -0.87652249489E-01  0.13062934075E+02  0.51100000000E-03 0. -1.
        -11    1    3    3    0    0 -0.90658123487E+00 -0.44845122583E+01  0.14016940903E+01  0.47851317970E+01  0.51100000000E-03 0.  1.
         12    1    3    3    0    0 -0.32661378697E+01 -0.26677130197E+02 -0.88446454200E+01  0.28294251797E+02  0.00000000000E+00 0. -1.
</event>
<event>
 7    1  0.4119299E-008  0.4614232E+02  0.7816164E-02  0.1320468E+00
        -11   -1    0    0    0    0  0.00000000000E+00  0.00000000000E+00  0.45593999997E+02  0.45594000000E+02  0.51100000000E-03 0.  1.
         11   -1    0    0    0    0 -0.00000000000E+00 -0.00000000000E+00 -0.45593999997E+02  0.45594000000E+02  0.51100000000E-03 0. -1.
    9900012    2    1    2    0    0  0.51193060545E+01  0.36694799932E+02 -0.25620262409E+02  0.46142317827E+02  0.10000000599E+02 0.  0.
        -12    1    1    2    0    0 -0.51193060545E+01 -0.36694799932E+02  0.25620262409E+02  0.45045682173E+02  0.00000000000E+00 0.  1.
         11    1    3    3    0    0  0.51454606220E+00  0.20424638314E+02 -0.12106737350E+02  0.23748762019E+02  0.51100000000E-03 0. -1.
        -11    1    3    3    0    0 -0.10972660588E+00  0.36236850091E+01 -0.58237384435E+01  0.68599608375E+01  0.51100000000E-03 0.  1.
        -12    1    3    3    0    0  0.47144865982E+01  0.12646476609E+02 -0.76897866149E+01  0.15533594970E+02  0.00000000000E+00 0.  1.
</event>
<event>
 7    1  0.4119299E-008  0.4614231E+02  0.7816164E-02  0.1320468E+00
        -11   -1    0    0    0    0  0.00000000000E+00  0.00000000000E+00  0.45593999997E+02  0.45594000000E+02  0.51100000000E-03 0. -1.
         11   -1    0    0    0    0 -0.00000000000E+00 -0.00000000000E+00 -0.45593999997E+02  0.45594000000E+02  0.51100000000E-03 0.  1.
    9900012    2    1    2    0    0 -0.38394610570E+02  0.23530495597E+02  0.11330582826E+01  0.46142310251E+02  0.99999315203E+01 0.  0.
        -12    1    1    2    0    0  0.38394610570E+02 -0.23530495597E+02 -0.11330582826E+01  0.45045689749E+02  0.00000000000E+00 0.  1.
         11    1    3    3    0    0 -0.25309173347E+02  0.11600745139E+02 -0.41816937264E+00  0.27844324541E+02  0.51100000000E-03 0. -1.
        -11    1    3    3    0    0 -0.89059254285E+01  0.64673710311E+01  0.26799856335E+01  0.11328050099E+02  0.51100000000E-03 0.  1.
        -12    1    3    3    0    0 -0.41795117945E+01  0.54623794274E+01 -0.11287579782E+01  0.69699356111E+01  0.00000000000E+00 0.  1.
</event>
<event>
 7    1  0.4119299E-008  0.4614232E+02  0.7816164E-02  0.1320468E+00
        -11   -1    0    0    0    0  0.00000000000E+00  0.00000000000E+00  0.45593999997E+02  0.45594000000E+02  0.51100000000E-03 0.  1.
         11   -1    0    0    0    0 -0.00000000000E+00 -0.00000000000E+00 -0.45593999997E+02  0.45594000000E+02  0.51100000000E-03 0. -1.
    9900012    2    1    2    0    0  0.38397097470E+02 -0.18531414382E+02  0.14538332274E+02  0.46142317428E+02  0.99999969589E+01 0.  0.
        -12    1    1    2    0    0 -0.38397097470E+02  0.18531414382E+02 -0.14538332274E+02  0.45045682572E+02  0.00000000000E+00 0.  1.
         11    1    3    3    0    0  0.26690569569E+02 -0.91563532077E+01  0.94244741003E+01  0.29749723029E+02  0.51100000000E-03 0. -1.
        -11    1    3    3    0    0 -0.25207605796E+00 -0.85125989770E+00  0.24397567163E+00  0.92071175831E+00  0.51100000000E-03 0.  1.
        -12    1    3    3    0    0  0.11958603958E+02 -0.85238012767E+01  0.48698825018E+01  0.15471882640E+02  0.00000000000E+00 0.  1.
</event>
<event>
 7    1  0.4119299E-008  0.4614232E+02  0.7816164E-02  0.1320468E+00
        -11   -1    0    0    0    0  0.00000000000E+00  0.00000000000E+00  0.45593999997E+02  0.45594000000E+02  0.51100000000E-03 0.  1.
         11   -1    0    0    0    0 -0.00000000000E+00 -0.00000000000E+00 -0.45593999997E+02  0.45594000000E+02  0.51100000000E-03 0. -1.
    9900012    2    1    2    0    0 -0.78024482931E+01 -0.59680594106E+01 -0.43961547121E+02  0.46142316991E+02  0.99999929780E+01 0.  0.
        -12    1    1    2    0    0  0.78024482931E+01  0.59680594106E+01  0.43961547121E+02  0.45045683009E+02  0.00000000000E+00 0.  1.
         11    1    3    3    0    0 -0.25428208042E+01 -0.62535469156E+01 -0.13170645742E+02  0.14799955953E+02  0.51100000000E-03 0. -1.
        -11    1    3    3    0    0 -0.16942500731E+01  0.13018575338E+01 -0.12129258752E+02  0.12316015365E+02  0.51100000000E-03 0.  1.
         12    1    3    3    0    0 -0.35653774157E+01 -0.10163700288E+01 -0.18661642626E+02  0.19026345673E+02  0.00000000000E+00 0. -1.
</event>
<event>
 7    1  0.4119299E-008  0.4614232E+02  0.7816164E-02  0.1320468E+00
        -11   -1    0    0    0    0  0.00000000000E+00  0.00000000000E+00  0.45593999997E+02  0.45594000000E+02  0.51100000000E-03 0. -1.
         11   -1    0    0    0    0 -0.00000000000E+00 -0.00000000000E+00 -0.45593999997E+02  0.45594000000E+02  0.51100000000E-03 0.  1.
    9900012    2    1    2    0    0  0.19920906725E+02 -0.27789832470E+02  0.29325691101E+02  0.46142317942E+02  0.10000001653E+02 0.  0.
        -12    1    1    2    0    0 -0.19920906725E+02  0.27789832470E+02 -0.29325691101E+02  0.45045682058E+02  0.00000000000E+00 0.  1.
         11    1    3    3    0    0  0.14181997053E+02 -0.18751266759E+02  0.24466409571E+02  0.33931463910E+02  0.51100000000E-03 0. -1.
        -11    1    3    3    0    0  0.27511788058E+01 -0.32403169778E+01  0.31733255418E+00  0.42625507797E+01  0.51100000000E-03 0.  1.
         12    1    3    3    0    0  0.29877308664E+01 -0.57982487336E+01  0.45419489756E+01  0.79483032531E+01  0.00000000000E+00 0. -1.
</event>
<event>
 7    1  0.4119299E-008  0.4614232E+02  0.7816164E-02  0.1320468E+00
        -11   -1    0    0    0    0  0.00000000000E+00  0.00000000000E+00  0.45593999997E+02  0.45594000000E+02  0.51100000000E-03 0.  1.
         11   -1    0    0    0    0 -0.00000000000E+00 -0.00000000000E+00 -0.45593999997E+02  0.45594000000E+02  0.51100000000E-03 0. -1.
    9900012    2    1    2    0    0 -0.20370796175E+02  0.12955542380E+02 -0.38030225798E+02  0.46142317749E+02  0.99999998904E+01 0.  0.
        -12    1    1    2    0    0  0.20370796175E+02 -0.12955542380E+02  0.38030225798E+02  0.45045682251E+02  0.00000000000E+00 0.  1.
         11    1    3    3    0    0 -0.53056582939E+01  0.46013480802E+01 -0.15662742498E+02  0.17165194928E+02  0.51100000000E-03 0. -1.
        -11    1    3    3    0    0 -0.41308226534E+00  0.25974059198E+01 -0.39905313638E+01  0.47792776962E+01  0.51100000000E-03 0.  1.
         12    1    3    3    0    0 -0.14652055616E+02  0.57567883805E+01 -0.18376951936E+02  0.24197845125E+02  0.00000000000E+00 0. -1.
</event>
<event>
 7    1  0.4119299E-008  0.4614232E+02  0.7816164E-02  0.1320468E+00
        -11   -1    0    0    0    0  0.00000000000E+00  0.00000000000E+00  0.45593999997E+02  0.45594000000E+02  0.51100000000E-03 0. -1.
         11   -1    0    0    0    0 -0.00000000000E+00 -0.00000000000E+00 -0.45593999997E+02  0.45594000000E+02  0.51100000000E-03 0.  1.
    9900012    2    1    2    0    0  0.14844345026E+02  0.42529275809E+02 -0.14008872454E+00  0.46142317578E+02  0.99999983266E+01 0.  0.
        -12    1    1    2    0    0 -0.14844345026E+02 -0.42529275809E+02  0.14008872454E+00  0.45045682422E+02  0.00000000000E+00 0.  1.
         11    1    3    3    0    0  0.73211726097E+01  0.24603701508E+02 -0.27065782008E+00  0.25671286532E+02  0.51100000000E-03 0. -1.
        -11    1    3    3    0    0  0.54051989635E+01  0.17408531063E+02  0.61081890647E+00  0.18238591766E+02  0.51100000000E-03 0.  1.
        -12    1    3    3    0    0  0.21179734527E+01  0.51704323692E+00 -0.48024981093E+00  0.22324392794E+01  0.00000000000E+00 0.  1.
</event>
<event>
 7    1  0.4119299E-008  0.4614232E+02  0.7816164E-02  0.1320468E+00
        -11   -1    0    0    0    0  0.00000000000E+00  0.00000000000E+00  0.45593999997E+02  0.45594000000E+02  0.51100000000E-03 0. -1.
         11   -1    0    0    0    0 -0.00000000000E+00 -0.00000000000E+00 -0.45593999997E+02  0.45594000000E+02  0.51100000000E-03 0.  1.
    9900012    2    1    2    0    0  0.31257457672E+02  0.22240771843E+02  0.23610016194E+02  0.46142318110E+02  0.10000003180E+02 0.  0.
        -12    1    1    2    0    0 -0.31257457672E+02 -0.22240771843E+02 -0.23610016194E+02  0.45045681890E+02  0.00000000000E+00 0.  1.
         11    1    3    3    0    0  0.29461191834E+01  0.18574020010E+01  0.33136934644E+01  0.48072991454E+01  0.51100000000E-03 0. -1.
        -11    1    3    3    0    0  0.19391183242E+02  0.10796018400E+02  0.16639101137E+02  0.27738631685E+02  0.51100000000E-03 0.  1.
        -12    1    3    3    0    0  0.89201552460E+01  0.95873514419E+01  0.36572215931E+01  0.13596387280E+02  0.00000000000E+00 0.  1.
</event>
<event>
 7    1  0.4119299E-008  0.4614232E+02  0.7816164E-02  0.1320468E+00
        -11   -1    0    0    0    0  0.00000000000E+00  0.00000000000E+00  0.45593999997E+02  0.45594000000E+02  0.51100000000E-03 0.  1.
         11   -1    0    0    0    0 -0.00000000000E+00 -0.00000000000E+00 -0.45593999997E+02  0.45594000000E+02  0.51100000000E-03 0. -1.
    9900012    2    1    2    0    0  0.40372256287E+02  0.19869614611E+02 -0.20959101989E+01  0.46142317609E+02  0.99999986135E+01 0.  0.
        -12    1    1    2    0    0 -0.40372256287E+02 -0.19869614611E+02  0.20959101989E+01  0.45045682391E+02  0.00000000000E+00 0.  1.
         11    1    3    3    0    0  0.77730928976E+00  0.81368866051E+00  0.43936645053E+00  0.12080323287E+01  0.51100000000E-03 0. -1.
        -11    1    3    3    0    0  0.47536211559E+01  0.59283575684E+01  0.20085501264E+00  0.76014919950E+01  0.51100000000E-03 0.  1.
         12    1    3    3    0    0  0.34841325842E+02  0.13127568382E+02 -0.27361316621E+01  0.37332793285E+02  0.00000000000E+00 0. -1.
</event>
<event>
 7    1  0.4119299E-008  0.4614232E+02  0.7816164E-02  0.1320468E+00
        -11   -1    0    0    0    0  0.00000000000E+00  0.00000000000E+00  0.45593999997E+02  0.45594000000E+02  0.51100000000E-03 0. -1.
         11   -1    0    0    0    0 -0.00000000000E+00 -0.00000000000E+00 -0.45593999997E+02  0.45594000000E+02  0.51100000000E-03 0.  1.
    9900012    2    1    2    0    0 -0.23862770201E+01  0.39458736078E+02  0.21596923749E+02  0.46142320004E+02  0.10000020451E+02 0.  0.
        -12    1    1    2    0    0  0.23862770201E+01 -0.39458736078E+02 -0.21596923749E+02  0.45045679996E+02  0.00000000000E+00 0.  1.
         11    1    3    3    0    0 -0.33165989342E+01  0.16741841593E+02  0.80309868735E+01  0.18862286151E+02  0.51100000000E-03 0. -1.
        -11    1    3    3    0    0 -0.17827807082E+01  0.18900447565E+02  0.10978168132E+02  0.21930011423E+02  0.51100000000E-03 0.  1.
        -12    1    3    3    0    0  0.27131026223E+01  0.38164469203E+01  0.25877687437E+01  0.53500224304E+01  0.00000000000E+00 0.  1.
</event>
<event>
 7    1  0.4119299E-008  0.4614232E+02  0.7816164E-02  0.1320468E+00
        -11   -1    0    0    0    0  0.00000000000E+00  0.00000000000E+00  0.45593999997E+02  0.45594000000E+02  0.51100000000E-03 0.  1.
         11   -1    0    0    0    0 -0.00000000000E+00 -0.00000000000E+00 -0.45593999997E+02  0.45594000000E+02  0.51100000000E-03 0. -1.
    9900012    2    1    2    0    0  0.43323134326E+02 -0.81089312659E+01  0.92986361082E+01  0.46142319102E+02  0.10000012224E+02 0.  0.
        -12    1    1    2    0    0 -0.43323134326E+02  0.81089312659E+01 -0.92986361082E+01  0.45045680898E+02  0.00000000000E+00 0.  1.
         11    1    3    3    0    0  0.43845155705E+01  0.33640167347E+00 -0.18297657442E+00  0.44012070573E+01  0.51100000000E-03 0. -1.
        -11    1    3    3    0    0  0.32730702303E+01  0.12737897844E+01  0.19441617183E+01  0.40143859051E+01  0.51100000000E-03 0.  1.
         12    1    3    3    0    0  0.35665548525E+02 -0.97191227237E+01  0.75374509643E+01  0.37726726139E+02  0.00000000000E+00 0. -1.
</event>
<event>
 7    1  0.4119299E-008  0.4614232E+02  0.7816164E-02  0.1320468E+00
        -11   -1    0    0    0    0  0.00000000000E+00  0.00000000000E+00  0.45593999997E+02  0.45594000000E+02  0.51100000000E-03 0.  1.
         11   -1    0    0    0    0 -0.00000000000E+00 -0.00000000000E+00 -0.45593999997E+02  0.45594000000E+02  0.51100000000E-03 0. -1.
    9900012    2    1    2    0    0 -0.14953986213E+02 -0.39781143429E+02 -0.14931586478E+02  0.46142319287E+02  0.10000013914E+02 0.  0.
        -12    1    1    2    0    0  0.14953986213E+02  0.39781143429E+02  0.14931586478E+02  0.45045680713E+02  0.00000000000E+00 0.  1.
         11    1    3    3    0    0  0.69976535653E+00 -0.26351741047E+01 -0.45089000974E+00  0.27635332780E+01  0.51100000000E-03 0. -1.
        -11    1    3    3    0    0 -0.49582584212E+01 -0.71206461885E+01 -0.86797035460E+00  0.87201663694E+01  0.51100000000E-03 0.  1.
         12    1    3    3    0    0 -0.10695493148E+02 -0.30025323136E+02 -0.13612726114E+02  0.34658619640E+02  0.00000000000E+00 0. -1.
</event>
<event>
 7    1  0.4119299E-008  0.4614232E+02  0.7816164E-02  0.1320468E+00
        -11   -1    0    0    0    0  0.00000000000E+00  0.00000000000E+00  0.45593999997E+02  0.45594000000E+02  0.51100000000E-03 0. -1.
         11   -1    0    0    0    0 -0.00000000000E+00 -0.00000000000E+00 -0.45593999997E+02  0.45594000000E+02  0.51100000000E-03 0.  1.
    9900012    2    1    2    0    0 -0.94775555735E+01 -0.32417694876E+02  0.29805737634E+02  0.46142323220E+02  0.10000049774E+02 0.  0.
        -12    1    1    2    0    0  0.94775555735E+01  0.32417694876E+02 -0.29805737634E+02  0.45045676780E+02  0.00000000000E+00 0.  1.
         11    1    3    3    0    0 -0.15048095139E+01 -0.20118898346E+01  0.46120100118E+01  0.52519319293E+01  0.51100000000E-03 0. -1.
        -11    1    3    3    0    0  0.66153203983E+00 -0.21337905450E+00  0.11971830557E+00  0.70532828841E+00  0.51100000000E-03 0.  1.
         12    1    3    3    0    0 -0.86342780995E+01 -0.30192425987E+02  0.25074009316E+02  0.40185063002E+02  0.00000000000E+00 0. -1.
</event>
<event>
 7    1  0.4119299E-008  0.4614232E+02  0.7816164E-02  0.1320468E+00
        -11   -1    0    0    0    0  0.00000000000E+00  0.00000000000E+00  0.45593999997E+02  0.45594000000E+02  0.51100000000E-03 0.  1.
         11   -1    0    0    0    0 -0.00000000000E+00 -0.00000000000E+00 -0.45593999997E+02  0.45594000000E+02  0.51100000000E-03 0. -1.
    9900012    2    1    2    0    0 -0.45634962659E+01  0.33126016998E+02 -0.30182028566E+02  0.46142319311E+02  0.10000014136E+02 0.  0.
        -12    1    1    2    0    0  0.45634962659E+01 -0.33126016998E+02  0.30182028566E+02  0.45045680689E+02  0.00000000000E+00 0.  1.
         11    1    3    3    0    0 -0.67279715094E+00  0.12927007345E+02 -0.14622723852E+02  0.19529061114E+02  0.51100000000E-03 0. -1.
        -11    1    3    3    0    0 -0.50358492870E+01  0.19336027315E+02 -0.15276306547E+02  0.25151685278E+02  0.51100000000E-03 0.  1.
        -12    1    3    3    0    0  0.11451501721E+01  0.86298233832E+00 -0.28299816749E+00  0.14615729184E+01  0.00000000000E+00 0.  1.
</event>
<event>
 7    1  0.4119299E-008  0.4614232E+02  0.7816164E-02  0.1320468E+00
        -11   -1    0    0    0    0  0.00000000000E+00  0.00000000000E+00  0.45593999997E+02  0.45594000000E+02  0.51100000000E-03 0.  1.
         11   -1    0    0    0    0 -0.00000000000E+00 -0.00000000000E+00 -0.45593999997E+02  0.45594000000E+02  0.51100000000E-03 0. -1.
    9900012    2    1    2    0    0  0.28633335120E+01  0.17155826170E+02 -0.41552285472E+02  0.46142317873E+02  0.10000001019E+02 0.  0.
        -12    1    1    2    0    0 -0.28633335120E+01 -0.17155826170E+02  0.41552285472E+02  0.45045682127E+02  0.00000000000E+00 0.  1.
         11    1    3    3    0    0  0.23898091951E+00 -0.46223413739E-01 -0.56564039992E+01  0.56616388923E+01  0.51100000000E-03 0. -1.
        -11    1    3    3    0    0 -0.16779020973E+01  0.10682297537E+02 -0.22751870848E+02  0.25190761470E+02  0.51100000000E-03 0.  1.
         12    1    3    3    0    0  0.43022546898E+01  0.65197520464E+01 -0.13144010625E+02  0.15289917510E+02  0.00000000000E+00 0. -1.
</event>
<event>
 7    1  0.4119299E-008  0.4614233E+02  0.7816164E-02  0.1320468E+00
        -11   -1    0    0    0    0  0.00000000000E+00  0.00000000000E+00  0.45593999997E+02  0.45594000000E+02  0.51100000000E-03 0.  1.
         11   -1    0    0    0    0 -0.00000000000E+00 -0.00000000000E+00 -0.45593999997E+02  0.45594000000E+02  0.51100000000E-03 0. -1.
    9900012    2    1    2    0    0 -0.39318191812E+02  0.12065965712E+02 -0.18374025732E+02  0.46142328093E+02  0.10000094218E+02 0.  0.
        -12    1    1    2    0    0  0.39318191812E+02 -0.12065965712E+02  0.18374025732E+02  0.45045671907E+02  0.00000000000E+00 0.  1.
         11    1    3    3    0    0 -0.19170130982E+02  0.66809004143E+01 -0.63447001521E+01  0.21269310579E+02  0.51100000000E-03 0. -1.
        -11    1    3    3    0    0 -0.11090460688E-01 -0.71299202077E+00 -0.22463390242E+00  0.74762374978E+00  0.51100000000E-03 0.  1.
         12    1    3    3    0    0 -0.20136970369E+02  0.60980573182E+01 -0.11804691678E+02  0.24125393765E+02  0.00000000000E+00 0. -1.
</event>
<event>
 7    1  0.4119299E-008  0.4614232E+02  0.7816164E-02  0.1320468E+00
        -11   -1    0    0    0    0  0.00000000000E+00  0.00000000000E+00  0.45593999997E+02  0.45594000000E+02  0.51100000000E-03 0.  1.
         11   -1    0    0    0    0 -0.00000000000E+00 -0.00000000000E+00 -0.45593999997E+02  0.45594000000E+02  0.51100000000E-03 0. -1.
    9900012    2    1    2    0    0  0.97320213486E+01  0.43968514537E+02  0.10820916227E+01  0.46142318382E+02  0.10000005661E+02 0.  0.
        -12    1    1    2    0    0 -0.97320213486E+01 -0.43968514537E+02 -0.10820916227E+01  0.45045681618E+02  0.00000000000E+00 0.  1.
         11    1    3    3    0    0  0.37653031089E+01  0.14498690991E+02  0.10945889655E+01  0.15019576333E+02  0.51100000000E-03 0.  1.
        -11    1    3    3    0    0  0.66103201606E+01  0.24131676722E+02  0.25804170984E+01  0.25153383603E+02  0.51100000000E-03 0. -1.
        -12    1    3    3    0    0 -0.64360192097E+00  0.53381468248E+01 -0.25929144411E+01  0.59693584458E+01  0.00000000000E+00 0.  1.
</event>
<event>
 7    1  0.4119299E-008  0.4614232E+02  0.7816164E-02  0.1320468E+00
        -11   -1    0    0    0    0  0.00000000000E+00  0.00000000000E+00  0.45593999997E+02  0.45594000000E+02  0.51100000000E-03 0.  1.
         11   -1    0    0    0    0 -0.00000000000E+00 -0.00000000000E+00 -0.45593999997E+02  0.45594000000E+02  0.51100000000E-03 0. -1.
    9900012    2    1    2    0    0  0.53886117605E+01  0.16629698237E+00 -0.44721905086E+02  0.46142316678E+02  0.99999901258E+01 0.  0.
        -12    1    1    2    0    0 -0.53886117605E+01 -0.16629698237E+00  0.44721905086E+02  0.45045683322E+02  0.00000000000E+00 0.  1.
         11    1    3    3    0    0  0.12038122601E+00  0.30942438040E+01 -0.86486071965E+01  0.91862529389E+01  0.51100000000E-03 0. -1.
        -11    1    3    3    0    0 -0.52071812018E-01  0.12156640428E+00  0.15995286912E+00  0.20754528594E+00  0.51100000000E-03 0.  1.
         12    1    3    3    0    0  0.53203023465E+01 -0.30495132259E+01 -0.36233250759E+02  0.36748518453E+02  0.00000000000E+00 0. -1.
</event>
<event>
 7    1  0.4119299E-008  0.4614232E+02  0.7816164E-02  0.1320468E+00
        -11   -1    0    0    0    0  0.00000000000E+00  0.00000000000E+00  0.45593999997E+02  0.45594000000E+02  0.51100000000E-03 0. -1.
         11   -1    0    0    0    0 -0.00000000000E+00 -0.00000000000E+00 -0.45593999997E+02  0.45594000000E+02  0.51100000000E-03 0.  1.
    9900012    2    1    2    0    0 -0.91216190873E+01  0.11068654668E+02  0.42701225632E+02  0.46142315174E+02  0.99999764098E+01 0.  0.
        -12    1    1    2    0    0  0.91216190873E+01 -0.11068654668E+02 -0.42701225632E+02  0.45045684826E+02  0.00000000000E+00 0.  1.
         11    1    3    3    0    0 -0.41676360873E+01  0.76964076151E+01  0.13452239426E+02  0.16048882409E+02  0.51100000000E-03 0. -1.
        -11    1    3    3    0    0 -0.46354543859E-02  0.49681398188E+00  0.99770054712E+01  0.99893685513E+01  0.51100000000E-03 0.  1.
         12    1    3    3    0    0 -0.49493475456E+01  0.28754330712E+01  0.19271980735E+02  0.20104064214E+02  0.00000000000E+00 0. -1.
</event>
<event>
 7    1  0.4119299E-008  0.4614232E+02  0.7816164E-02  0.1320468E+00
        -11   -1    0    0    0    0  0.00000000000E+00  0.00000000000E+00  0.45593999997E+02  0.45594000000E+02  0.51100000000E-03 0.  1.
         11   -1    0    0    0    0 -0.00000000000E+00 -0.00000000000E+00 -0.45593999997E+02  0.45594000000E+02  0.51100000000E-03 0. -1.
    9900012    2    1    2    0    0  0.19877808096E+02  0.23138729674E+02 -0.33144915686E+02  0.46142317616E+02  0.99999986755E+01 0.  0.
        -12    1    1    2    0    0 -0.19877808096E+02 -0.23138729674E+02  0.33144915686E+02  0.45045682384E+02  0.00000000000E+00 0.  1.
         11    1    3    3    0    0  0.92842288506E+01  0.11031706486E+02 -0.19684026693E+02  0.24399925419E+02  0.51100000000E-03 0. -1.
        -11    1    3    3    0    0  0.21331586125E+01  0.59582006673E+01 -0.32036085896E+01  0.70932100712E+01  0.51100000000E-03 0.  1.
        -12    1    3    3    0    0  0.84604206329E+01  0.61488225210E+01 -0.10257280403E+02  0.14649182126E+02  0.00000000000E+00 0.  1.
</event>
<event>
 7    1  0.4119299E-008  0.4614232E+02  0.7816164E-02  0.1320468E+00
        -11   -1    0    0    0    0  0.00000000000E+00  0.00000000000E+00  0.45593999997E+02  0.45594000000E+02  0.51100000000E-03 0.  1.
         11   -1    0    0    0    0 -0.00000000000E+00 -0.00000000000E+00 -0.45593999997E+02  0.45594000000E+02  0.51100000000E-03 0. -1.
    9900012    2    1    2    0    0  0.42385367033E+02  0.52377332583E+01 -0.14323420061E+02  0.46142317072E+02  0.99999937131E+01 0.  0.
        -12    1    1    2    0    0 -0.42385367033E+02 -0.52377332583E+01  0.14323420061E+02  0.45045682928E+02  0.00000000000E+00 0.  1.
         11    1    3    3    0    0  0.30867121397E+02  0.54281458199E+01 -0.90071417163E+01  0.32609393625E+02  0.51100000000E-03 0. -1.
        -11    1    3    3    0    0  0.62579038570E+00  0.13037758012E+01 -0.73378748614E+00  0.16216933380E+01  0.51100000000E-03 0.  1.
         12    1    3    3    0    0  0.10892455250E+02 -0.14941883628E+01 -0.45824908588E+01  0.11911230109E+02  0.00000000000E+00 0. -1.
</event>
<event>
 7    1  0.4119299E-008  0.4614232E+02  0.7816164E-02  0.1320468E+00
        -11   -1    0    0    0    0  0.00000000000E+00  0.00000000000E+00  0.45593999997E+02  0.45594000000E+02  0.51100000000E-03 0.  1.
         11   -1    0    0    0    0 -0.00000000000E+00 -0.00000000000E+00 -0.45593999997E+02  0.45594000000E+02  0.51100000000E-03 0. -1.
    9900012    2    1    2    0    0  0.44496609418E+02  0.65306706409E+01 -0.25525558085E+01  0.46142318188E+02  0.10000003892E+02 0.  0.
        -12    1    1    2    0    0 -0.44496609418E+02 -0.65306706409E+01  0.25525558085E+01  0.45045681812E+02  0.00000000000E+00 0.  1.
         11    1    3    3    0    0  0.16303603031E+02  0.19272562167E+01 -0.16483962711E+01  0.16499666629E+02  0.51100000000E-03 0. -1.
        -11    1    3    3    0    0  0.49373841558E+01  0.13689171106E+01 -0.32164859072E+01  0.60495849618E+01  0.51100000000E-03 0.  1.
        -12    1    3    3    0    0  0.23255622231E+02  0.32344973136E+01  0.23123263698E+01  0.23593066598E+02  0.00000000000E+00 0.  1.
</event>
<event>
 7    1  0.4119299E-008  0.4614232E+02  0.7816164E-02  0.1320468E+00
        -11   -1    0    0    0    0  0.00000000000E+00  0.00000000000E+00  0.45593999997E+02  0.45594000000E+02  0.51100000000E-03 0.  1.
         11   -1    0    0    0    0 -0.00000000000E+00 -0.00000000000E+00 -0.45593999997E+02  0.45594000000E+02  0.51100000000E-03 0. -1.
    9900012    2    1    2    0    0 -0.22730144200E+02  0.21402925427E+02 -0.32471047184E+02  0.46142316773E+02  0.99999909887E+01 0.  0.
        -12    1    1    2    0    0  0.22730144200E+02 -0.21402925427E+02  0.32471047184E+02  0.45045683227E+02  0.00000000000E+00 0.  1.
         11    1    3    3    0    0 -0.10867091110E+02  0.11853784683E+02 -0.16455391534E+02  0.23008385239E+02  0.51100000000E-03 0. -1.
        -11    1    3    3    0    0 -0.10485387081E+02  0.51290770831E+01 -0.13564105834E+02  0.17895131776E+02  0.51100000000E-03 0.  1.
        -12    1    3    3    0    0 -0.13776660083E+01  0.44200636612E+01 -0.24515498164E+01  0.52387997578E+01  0.00000000000E+00 0.  1.
</event>
<event>
 7    1  0.4119299E-008  0.4614232E+02  0.7816164E-02  0.1320468E+00
        -11   -1    0    0    0    0  0.00000000000E+00  0.00000000000E+00  0.45593999997E+02  0.45594000000E+02  0.51100000000E-03 0.  1.
         11   -1    0    0    0    0 -0.00000000000E+00 -0.00000000000E+00 -0.45593999997E+02  0.45594000000E+02  0.51100000000E-03 0. -1.
    9900012    2    1    2    0    0  0.28150961227E+02 -0.32550684873E+02 -0.13307507298E+02  0.46142318140E+02  0.10000003458E+02 0.  0.
        -12    1    1    2    0    0 -0.28150961227E+02  0.32550684873E+02  0.13307507298E+02  0.45045681860E+02  0.00000000000E+00 0.  1.
         11    1    3    3    0    0  0.16051839223E+02 -0.12951068629E+02 -0.52879953146E+01  0.21292125676E+02  0.51100000000E-03 0.  1.
        -11    1    3    3    0    0  0.10372419647E+02 -0.13285921551E+02 -0.46330605576E+01  0.17480504889E+02  0.51100000000E-03 0. -1.
        -12    1    3    3    0    0  0.17267023578E+01 -0.63136946930E+01 -0.33864514257E+01  0.73696875759E+01  0.00000000000E+00 0.  1.
</event>
<event>
 7    1  0.4119299E-008  0.4614232E+02  0.7816164E-02  0.1320468E+00
        -11   -1    0    0    0    0  0.00000000000E+00  0.00000000000E+00  0.45593999997E+02  0.45594000000E+02  0.51100000000E-03 0.  1.
         11   -1    0    0    0    0 -0.00000000000E+00 -0.00000000000E+00 -0.45593999997E+02  0.45594000000E+02  0.51100000000E-03 0. -1.
    9900012    2    1    2    0    0 -0.26520951191E+02  0.15254996186E+02 -0.33061121322E+02  0.46142317590E+02  0.99999984438E+01 0.  0.
        -12    1    1    2    0    0  0.26520951191E+02 -0.15254996186E+02  0.33061121322E+02  0.45045682410E+02  0.00000000000E+00 0.  1.
         11    1    3    3    0    0 -0.23453687878E+02  0.15745299830E+02 -0.30995299473E+02  0.41936839789E+02  0.51100000000E-03 0. -1.
        -11    1    3    3    0    0  0.22594175327E+00  0.48451099974E-01  0.72471609001E-01  0.24217675403E+00  0.51100000000E-03 0.  1.
         12    1    3    3    0    0 -0.32932050659E+01 -0.53875474400E+00 -0.21382934578E+01  0.39633010474E+01  0.00000000000E+00 0. -1.
</event>
<event>
 7    1  0.4119299E-008  0.4614232E+02  0.7816164E-02  0.1320468E+00
        -11   -1    0    0    0    0  0.00000000000E+00  0.00000000000E+00  0.45593999997E+02  0.45594000000E+02  0.51100000000E-03 0.  1.
         11   -1    0    0    0    0 -0.00000000000E+00 -0.00000000000E+00 -0.45593999997E+02  0.45594000000E+02  0.51100000000E-03 0. -1.
    9900012    2    1    2    0    0  0.32464274724E+02 -0.64298674546E+01 -0.30558814273E+02  0.46142318091E+02  0.10000003012E+02 0.  0.
        -12    1    1    2    0    0 -0.32464274724E+02  0.64298674546E+01  0.30558814273E+02  0.45045681909E+02  0.00000000000E+00 0.  1.
         11    1    3    3    0    0  0.20054348540E+02 -0.51967216939E+01 -0.16274515494E+02  0.26344689533E+02  0.51100000000E-03 0. -1.
        -11    1    3    3    0    0  0.93479979332E+01 -0.15909584670E+01 -0.13697578564E+02  0.16659527994E+02  0.51100000000E-03 0.  1.
         12    1    3    3    0    0  0.30619282511E+01  0.35781270634E+00 -0.58672021474E+00  0.31381005653E+01  0.00000000000E+00 0. -1.
</event>
<event>
 7    1  0.4119299E-008  0.4614232E+02  0.7816164E-02  0.1320468E+00
        -11   -1    0    0    0    0  0.00000000000E+00  0.00000000000E+00  0.45593999997E+02  0.45594000000E+02  0.51100000000E-03 0. -1.
         11   -1    0    0    0    0 -0.00000000000E+00 -0.00000000000E+00 -0.45593999997E+02  0.45594000000E+02  0.51100000000E-03 0.  1.
    9900012    2    1    2    0    0  0.24200664050E+02 -0.36680976590E+02  0.98968337130E+01  0.46142317614E+02  0.99999986596E+01 0.  0.
        -12    1    1    2    0    0 -0.24200664050E+02  0.36680976590E+02 -0.98968337130E+01  0.45045682386E+02  0.00000000000E+00 0.  1.
         11    1    3    3    0    0  0.13094276020E+02 -0.16581807131E+02  0.35374538584E+01  0.21422650917E+02  0.51100000000E-03 0.  1.
        -11    1    3    3    0    0  0.10188418539E+00 -0.17232401103E+01  0.23704331264E+01  0.29323864569E+01  0.51100000000E-03 0. -1.
         12    1    3    3    0    0  0.11004503845E+02 -0.18375929348E+02  0.39889467283E+01  0.21787280241E+02  0.00000000000E+00 0. -1.
</event>
<event>
 7    1  0.4119299E-008  0.4614232E+02  0.7816164E-02  0.1320468E+00
        -11   -1    0    0    0    0  0.00000000000E+00  0.00000000000E+00  0.45593999997E+02  0.45594000000E+02  0.51100000000E-03 0.  1.
         11   -1    0    0    0    0 -0.00000000000E+00 -0.00000000000E+00 -0.45593999997E+02  0.45594000000E+02  0.51100000000E-03 0. -1.
    9900012    2    1    2    0    0 -0.97836169875E+01 -0.62544732823E+01 -0.43523280599E+02  0.46142317060E+02  0.99999936088E+01 0.  0.
        -12    1    1    2    0    0  0.97836169875E+01  0.62544732823E+01  0.43523280599E+02  0.45045682940E+02  0.00000000000E+00 0.  1.
         11    1    3    3    0    0  0.73021845096E+00 -0.72917790863E+00 -0.63630491867E+01  0.64461860524E+01  0.51100000000E-03 0. -1.
        -11    1    3    3    0    0 -0.89169606989E+01 -0.42891198521E+01 -0.36067143610E+02  0.37399834033E+02  0.51100000000E-03 0.  1.
        -12    1    3    3    0    0 -0.15968747396E+01 -0.12361755216E+01 -0.10930878020E+01  0.22962969749E+01  0.00000000000E+00 0.  1.
</event>
<event>
 7    1  0.4119299E-008  0.4614232E+02  0.7816164E-02  0.1320468E+00
        -11   -1    0    0    0    0  0.00000000000E+00  0.00000000000E+00  0.45593999997E+02  0.45594000000E+02  0.51100000000E-03 0.  1.
         11   -1    0    0    0    0 -0.00000000000E+00 -0.00000000000E+00 -0.45593999997E+02  0.45594000000E+02  0.51100000000E-03 0. -1.
    9900012    2    1    2    0    0 -0.11253062913E+02  0.41447415171E+01 -0.43420079604E+02  0.46142316300E+02  0.99999866807E+01 0.  0.
        -12    1    1    2    0    0  0.11253062913E+02 -0.41447415171E+01  0.43420079604E+02  0.45045683700E+02  0.00000000000E+00 0.  1.
         11    1    3    3    0    0 -0.43310109745E+01  0.40809950548E+01 -0.16226407465E+02  0.17283184781E+02  0.51100000000E-03 0. -1.
        -11    1    3    3    0    0  0.38360248723E+00 -0.15489871025E+01 -0.18950812147E+01  0.24774674536E+01  0.51100000000E-03 0.  1.
         12    1    3    3    0    0 -0.73056544254E+01  0.16127335649E+01 -0.25298590925E+02  0.26381664066E+02  0.00000000000E+00 0. -1.
</event>
<event>
 7    1  0.4119299E-008  0.4614232E+02  0.7816164E-02  0.1320468E+00
        -11   -1    0    0    0    0  0.00000000000E+00  0.00000000000E+00  0.45593999997E+02  0.45594000000E+02  0.51100000000E-03 0.  1.
         11   -1    0    0    0    0 -0.00000000000E+00 -0.00000000000E+00 -0.45593999997E+02  0.45594000000E+02  0.51100000000E-03 0. -1.
    9900012    2    1    2    0    0 -0.18894437760E+02 -0.55527171604E+01 -0.40512726248E+02  0.46142318363E+02  0.10000005484E+02 0.  0.
        -12    1    1    2    0    0  0.18894437760E+02  0.55527171604E+01  0.40512726248E+02  0.45045681637E+02  0.00000000000E+00 0.  1.
         11    1    3    3    0    0 -0.65198403262E+01 -0.56372264669E+01 -0.21017614517E+02  0.22716222405E+02  0.51100000000E-03 0. -1.
        -11    1    3    3    0    0 -0.10332451966E+00  0.64170887410E+00 -0.57360719906E+00  0.86688621825E+00  0.51100000000E-03 0.  1.
        -12    1    3    3    0    0 -0.12271272914E+02 -0.55719956764E+00 -0.18921504532E+02  0.22559209739E+02  0.00000000000E+00 0.  1.
</event>
<event>
 7    1  0.4119299E-008  0.4614232E+02  0.7816164E-02  0.1320468E+00
        -11   -1    0    0    0    0  0.00000000000E+00  0.00000000000E+00  0.45593999997E+02  0.45594000000E+02  0.51100000000E-03 0.  1.
         11   -1    0    0    0    0 -0.00000000000E+00 -0.00000000000E+00 -0.45593999997E+02  0.45594000000E+02  0.51100000000E-03 0. -1.
    9900012    2    1    2    0    0  0.20736723091E+02 -0.27967155508E+02 -0.28582159192E+02  0.46142319898E+02  0.10000019488E+02 0.  0.
        -12    1    1    2    0    0 -0.20736723091E+02  0.27967155508E+02  0.28582159192E+02  0.45045680102E+02  0.00000000000E+00 0.  1.
         11    1    3    3    0    0  0.53889250908E+01 -0.10524856807E+02 -0.73781828199E+01  0.13937385208E+02  0.51100000000E-03 0. -1.
        -11    1    3    3    0    0  0.27609471275E+00 -0.88024526605E+00  0.47450936834E+00  0.10374099578E+01  0.51100000000E-03 0.  1.
         12    1    3    3    0    0  0.15071703288E+02 -0.16562053434E+02 -0.21678485741E+02  0.31167524733E+02  0.00000000000E+00 0. -1.
</event>
<event>
 7    1  0.4119299E-008  0.4614232E+02  0.7816164E-02  0.1320468E+00
        -11   -1    0    0    0    0  0.00000000000E+00  0.00000000000E+00  0.45593999997E+02  0.45594000000E+02  0.51100000000E-03 0.  1.
         11   -1    0    0    0    0 -0.00000000000E+00 -0.00000000000E+00 -0.45593999997E+02  0.45594000000E+02  0.51100000000E-03 0. -1.
    9900012    2    1    2    0    0  0.39824019814E+02 -0.73646664094E+01 -0.19721126232E+02  0.46142315575E+02  0.99999800681E+01 0.  0.
        -12    1    1    2    0    0 -0.39824019814E+02  0.73646664094E+01  0.19721126232E+02  0.45045684425E+02  0.00000000000E+00 0.  1.
         11    1    3    3    0    0  0.50747790482E+01  0.88403971313E+00 -0.20291543998E+01  0.55364588359E+01  0.51100000000E-03 0. -1.
        -11    1    3    3    0    0  0.39654036784E+01  0.34349444754E+00  0.18661948276E+00  0.39846256864E+01  0.51100000000E-03 0.  1.
         12    1    3    3    0    0  0.30783837087E+02 -0.85922005700E+01 -0.17878591315E+02  0.36621231053E+02  0.00000000000E+00 0. -1.
</event>
<event>
 7    1  0.4119299E-008  0.4614232E+02  0.7816164E-02  0.1320468E+00
        -11   -1    0    0    0    0  0.00000000000E+00  0.00000000000E+00  0.45593999997E+02  0.45594000000E+02  0.51100000000E-03 0.  1.
         11   -1    0    0    0    0 -0.00000000000E+00 -0.00000000000E+00 -0.45593999997E+02  0.45594000000E+02  0.51100000000E-03 0. -1.
    9900012    2    1    2    0    0  0.82069786469E+01 -0.20572774301E+01 -0.44243941915E+02  0.46142320018E+02  0.10000020576E+02 0.  0.
        -12    1    1    2    0    0 -0.82069786469E+01  0.20572774301E+01  0.44243941915E+02  0.45045679982E+02  0.00000000000E+00 0.  1.
         11    1    3    3    0    0  0.44360362990E+01  0.24438918880E+01 -0.25664009891E+02  0.26158983725E+02  0.51100000000E-03 0. -1.
        -11    1    3    3    0    0  0.26380252567E+01 -0.31242889300E+01 -0.17329826181E+02  0.17805707913E+02  0.51100000000E-03 0.  1.
        -12    1    3    3    0    0  0.11329170912E+01 -0.13768803880E+01 -0.12501058433E+01  0.21776283793E+01  0.00000000000E+00 0.  1.
</event>
<event>
 7    1  0.4119299E-008  0.4614232E+02  0.7816164E-02  0.1320468E+00
        -11   -1    0    0    0    0  0.00000000000E+00  0.00000000000E+00  0.45593999997E+02  0.45594000000E+02  0.51100000000E-03 0. -1.
         11   -1    0    0    0    0 -0.00000000000E+00 -0.00000000000E+00 -0.45593999997E+02  0.45594000000E+02  0.51100000000E-03 0.  1.
    9900012    2    1    2    0    0 -0.13883098292E+02  0.41702841872E+02  0.98613399673E+01  0.46142318028E+02  0.10000002437E+02 0.  0.
        -12    1    1    2    0    0  0.13883098292E+02 -0.41702841872E+02 -0.98613399673E+01  0.45045681972E+02  0.00000000000E+00 0.  1.
         11    1    3    3    0    0 -0.16624133473E+01  0.43960686356E+01  0.22579271914E+01  0.52141416407E+01  0.51100000000E-03 0. -1.
        -11    1    3    3    0    0 -0.10152715259E+01  0.15641932655E+02  0.12583728671E+01  0.15725276977E+02  0.51100000000E-03 0.  1.
        -12    1    3    3    0    0 -0.11205413419E+02  0.21664840581E+02  0.63450399088E+01  0.25202899411E+02  0.00000000000E+00 0.  1.
</event>
<event>
 7    1  0.4119299E-008  0.4614232E+02  0.7816164E-02  0.1320468E+00
        -11   -1    0    0    0    0  0.00000000000E+00  0.00000000000E+00  0.45593999997E+02  0.45594000000E+02  0.51100000000E-03 0.  1.
         11   -1    0    0    0    0 -0.00000000000E+00 -0.00000000000E+00 -0.45593999997E+02  0.45594000000E+02  0.51100000000E-03 0. -1.
    9900012    2    1    2    0    0 -0.30260167671E+02  0.21618463514E+02 -0.25418058842E+02  0.46142318436E+02  0.10000006158E+02 0.  0.
        -12    1    1    2    0    0  0.30260167671E+02 -0.21618463514E+02  0.25418058842E+02  0.45045681564E+02  0.00000000000E+00 0.  1.
         11    1    3    3    0    0 -0.12732108389E+02  0.12666239418E+02 -0.16324617107E+02  0.24270008838E+02  0.51100000000E-03 0. -1.
        -11    1    3    3    0    0 -0.61732673752E+01  0.45168670360E+01 -0.27362151527E+01  0.81239271002E+01  0.51100000000E-03 0.  1.
        -12    1    3    3    0    0 -0.11354791907E+02  0.44353570609E+01 -0.63572265821E+01  0.13748382499E+02  0.00000000000E+00 0.  1.
</event>
<event>
 7    1  0.4119299E-008  0.4614232E+02  0.7816164E-02  0.1320468E+00
        -11   -1    0    0    0    0  0.00000000000E+00  0.00000000000E+00  0.45593999997E+02  0.45594000000E+02  0.51100000000E-03 0. -1.
         11   -1    0    0    0    0 -0.00000000000E+00 -0.00000000000E+00 -0.45593999997E+02  0.45594000000E+02  0.51100000000E-03 0.  1.
    9900012    2    1    2    0    0  0.19245478232E+02 -0.16228787437E+02  0.37354404152E+02  0.46142317814E+02  0.10000000482E+02 0.  0.
        -12    1    1    2    0    0 -0.19245478232E+02  0.16228787437E+02 -0.37354404152E+02  0.45045682186E+02  0.00000000000E+00 0.  1.
         11    1    3    3    0    0 -0.13120525500E+00  0.11252378397E+00 -0.16446783625E+00  0.23859243739E+00  0.51100000000E-03 0. -1.
        -11    1    3    3    0    0  0.27094957473E+01 -0.62035385178E+01  0.12060042310E+02  0.13830035362E+02  0.51100000000E-03 0.  1.
         12    1    3    3    0    0  0.16667187740E+02 -0.10137772703E+02  0.25458829678E+02  0.32073690014E+02  0.00000000000E+00 0. -1.
</event>
<event>
 7    1  0.4119299E-008  0.4614232E+02  0.7816164E-02  0.1320468E+00
        -11   -1    0    0    0    0  0.00000000000E+00  0.00000000000E+00  0.45593999997E+02  0.45594000000E+02  0.51100000000E-03 0.  1.
         11   -1    0    0    0    0 -0.00000000000E+00 -0.00000000000E+00 -0.45593999997E+02  0.45594000000E+02  0.51100000000E-03 0. -1.
    9900012    2    1    2    0    0  0.60712688366E+01 -0.36254061047E+02 -0.26036441058E+02  0.46142317514E+02  0.99999977482E+01 0.  0.
        -12    1    1    2    0    0 -0.60712688366E+01  0.36254061047E+02  0.26036441058E+02  0.45045682486E+02  0.00000000000E+00 0.  1.
         11    1    3    3    0    0  0.26022433018E+01 -0.24483119765E+02 -0.20568090735E+02  0.32081788921E+02  0.51100000000E-03 0. -1.
        -11    1    3    3    0    0  0.43500567387E+01 -0.10404752814E+02 -0.43500207135E+01  0.12087371725E+02  0.51100000000E-03 0.  1.
         12    1    3    3    0    0 -0.88103120384E+00 -0.13661884678E+01 -0.11183296095E+01  0.19731568684E+01  0.00000000000E+00 0. -1.
</event>
<event>
 7    1  0.4119299E-008  0.4614232E+02  0.7816164E-02  0.1320468E+00
        -11   -1    0    0    0    0  0.00000000000E+00  0.00000000000E+00  0.45593999997E+02  0.45594000000E+02  0.51100000000E-03 0.  1.
         11   -1    0    0    0    0 -0.00000000000E+00 -0.00000000000E+00 -0.45593999997E+02  0.45594000000E+02  0.51100000000E-03 0. -1.
    9900012    2    1    2    0    0 -0.16231610142E+02 -0.67068716243E+01 -0.41480914110E+02  0.46142317297E+02  0.99999957691E+01 0.  0.
        -12    1    1    2    0    0  0.16231610142E+02  0.67068716243E+01  0.41480914110E+02  0.45045682703E+02  0.00000000000E+00 0.  1.
         11    1    3    3    0    0 -0.51771708988E+01  0.92695770866E+00 -0.92507030036E+01  0.10641327710E+02  0.51100000000E-03 0. -1.
        -11    1    3    3    0    0 -0.11818720630E+02 -0.74645580753E+01 -0.31336389549E+02  0.34312841544E+02  0.51100000000E-03 0.  1.
        -12    1    3    3    0    0  0.76428138672E+00 -0.16927125761E+00 -0.89382155721E+00  0.11881480433E+01  0.00000000000E+00 0.  1.
</event>
<event>
 7    1  0.4119299E-008  0.4614232E+02  0.7816164E-02  0.1320468E+00
        -11   -1    0    0    0    0  0.00000000000E+00  0.00000000000E+00  0.45593999997E+02  0.45594000000E+02  0.51100000000E-03 0.  1.
         11   -1    0    0    0    0 -0.00000000000E+00 -0.00000000000E+00 -0.45593999997E+02  0.45594000000E+02  0.51100000000E-03 0. -1.
    9900012    2    1    2    0    0  0.31231870459E+02  0.29083463691E+02  0.14416519900E+02  0.46142316093E+02  0.99999847869E+01 0.  0.
        -12    1    1    2    0    0 -0.31231870459E+02 -0.29083463691E+02 -0.14416519900E+02  0.45045683907E+02  0.00000000000E+00 0.  1.
         11    1    3    3    0    0  0.47628203941E+00  0.77060786473E+00 -0.73007775351E+00  0.11634839275E+01  0.51100000000E-03 0.  1.
        -11    1    3    3    0    0  0.21908383588E+02  0.17189768410E+02  0.74982270365E+01  0.28839015559E+02  0.51100000000E-03 0. -1.
        -12    1    3    3    0    0  0.88472048311E+01  0.11123087416E+02  0.76483706169E+01  0.16139816606E+02  0.00000000000E+00 0.  1.
</event>
<event>
 7    1  0.4119299E-008  0.4614232E+02  0.7816164E-02  0.1320468E+00
        -11   -1    0    0    0    0  0.00000000000E+00  0.00000000000E+00  0.45593999997E+02  0.45594000000E+02  0.51100000000E-03 0.  1.
         11   -1    0    0    0    0 -0.00000000000E+00 -0.00000000000E+00 -0.45593999997E+02  0.45594000000E+02  0.51100000000E-03 0. -1.
    9900012    2    1    2    0    0  0.74551335574E+01  0.40312689141E+01 -0.44241193837E+02  0.46142318991E+02  0.10000011220E+02 0.  0.
        -12    1    1    2    0    0 -0.74551335574E+01 -0.40312689141E+01  0.44241193837E+02  0.45045681009E+02  0.00000000000E+00 0.  1.
         11    1    3    3    0    0  0.16347813560E+01 -0.30183646163E+01 -0.16096269777E+02  0.16458217887E+02  0.51100000000E-03 0.  1.
        -11    1    3    3    0    0  0.18521924969E+01  0.31369414916E+01 -0.14371301743E+02  0.14825833300E+02  0.51100000000E-03 0. -1.
        -12    1    3    3    0    0  0.39681597046E+01  0.39126920387E+01 -0.13773622316E+02  0.14858267804E+02  0.00000000000E+00 0.  1.
</event>
<event>
 7    1  0.4119299E-008  0.4614232E+02  0.7816164E-02  0.1320468E+00
        -11   -1    0    0    0    0  0.00000000000E+00  0.00000000000E+00  0.45593999997E+02  0.45594000000E+02  0.51100000000E-03 0.  1.
         11   -1    0    0    0    0 -0.00000000000E+00 -0.00000000000E+00 -0.45593999997E+02  0.45594000000E+02  0.51100000000E-03 0. -1.
    9900012    2    1    2    0    0 -0.74076244348E+00 -0.24068781473E+02 -0.38069128979E+02  0.46142317057E+02  0.99999935829E+01 0.  0.
        -12    1    1    2    0    0  0.74076244348E+00  0.24068781473E+02  0.38069128979E+02  0.45045682943E+02  0.00000000000E+00 0.  1.
         11    1    3    3    0    0 -0.24001056364E+01 -0.16638089131E+02 -0.23308775342E+02  0.28738224114E+02  0.51100000000E-03 0. -1.
        -11    1    3    3    0    0  0.42173106107E+00 -0.75326665213E+01 -0.10258069539E+02  0.12733692039E+02  0.51100000000E-03 0.  1.
        -12    1    3    3    0    0  0.12376121318E+01  0.10197417921E+00 -0.45022840969E+01  0.46704009048E+01  0.00000000000E+00 0.  1.
</event>
<event>
 7    1  0.4119299E-008  0.4614232E+02  0.7816164E-02  0.1320468E+00
        -11   -1    0    0    0    0  0.00000000000E+00  0.00000000000E+00  0.45593999997E+02  0.45594000000E+02  0.51100000000E-03 0.  1.
         11   -1    0    0    0    0 -0.00000000000E+00 -0.00000000000E+00 -0.45593999997E+02  0.45594000000E+02  0.51100000000E-03 0. -1.
    9900012    2    1    2    0    0 -0.98990244530E+00  0.30586311780E+02 -0.33054672012E+02  0.46142315224E+02  0.99999768612E+01 0.  0.
        -12    1    1    2    0    0  0.98990244530E+00 -0.30586311780E+02  0.33054672012E+02  0.45045684776E+02  0.00000000000E+00 0.  1.
         11    1    3    3    0    0 -0.21108548860E+01  0.21541970292E+02 -0.20140068757E+02  0.29565766728E+02  0.51100000000E-03 0. -1.
        -11    1    3    3    0    0 -0.10103595934E+01  0.76061421358E+01 -0.10796315387E+02  0.13245174627E+02  0.51100000000E-03 0.  1.
         12    1    3    3    0    0  0.21313120341E+01  0.14381993524E+01 -0.21182878679E+01  0.33313738690E+01  0.00000000000E+00 0. -1.
</event>
<event>
 7    1  0.4119299E-008  0.4614232E+02  0.7816164E-02  0.1320468E+00
        -11   -1    0    0    0    0  0.00000000000E+00  0.00000000000E+00  0.45593999997E+02  0.45594000000E+02  0.51100000000E-03 0.  1.
         11   -1    0    0    0    0 -0.00000000000E+00 -0.00000000000E+00 -0.45593999997E+02  0.45594000000E+02  0.51100000000E-03 0. -1.
    9900012    2    1    2    0    0 -0.58064949029E+01  0.13106084013E+02 -0.42703963977E+02  0.46142319180E+02  0.10000012941E+02 0.  0.
        -12    1    1    2    0    0  0.58064949029E+01 -0.13106084013E+02  0.42703963977E+02  0.45045680820E+02  0.00000000000E+00 0.  1.
         11    1    3    3    0    0 -0.13046277956E+01  0.80754106043E+01 -0.20867027281E+02  0.22413101926E+02  0.51100000000E-03 0. -1.
        -11    1    3    3    0    0 -0.57668952588E+01  0.22145768375E+01 -0.13791772020E+02  0.15112061647E+02  0.51100000000E-03 0.  1.
        -12    1    3    3    0    0  0.12650281514E+01  0.28160965710E+01 -0.80451646748E+01  0.86171556076E+01  0.00000000000E+00 0.  1.
</event>
<event>
 7    1  0.4119299E-008  0.4614232E+02  0.7816164E-02  0.1320468E+00
        -11   -1    0    0    0    0  0.00000000000E+00  0.00000000000E+00  0.45593999997E+02  0.45594000000E+02  0.51100000000E-03 0.  1.
         11   -1    0    0    0    0 -0.00000000000E+00 -0.00000000000E+00 -0.45593999997E+02  0.45594000000E+02  0.51100000000E-03 0. -1.
    9900012    2    1    2    0    0 -0.42202043840E+02 -0.14864415823E+02 -0.52105771160E+01  0.46142317900E+02  0.10000001264E+02 0.  0.
        -12    1    1    2    0    0  0.42202043840E+02  0.14864415823E+02  0.52105771160E+01  0.45045682100E+02  0.00000000000E+00 0.  1.
         11    1    3    3    0    0 -0.17956031076E+02 -0.50439951956E+01  0.14843934695E+01  0.18710007049E+02  0.51100000000E-03 0. -1.
        -11    1    3    3    0    0 -0.15443044612E+02 -0.82072767887E+01 -0.29717413234E+01  0.17739173203E+02  0.51100000000E-03 0.  1.
         12    1    3    3    0    0 -0.88029681514E+01 -0.16131438386E+01 -0.37232292621E+01  0.96931376477E+01  0.00000000000E+00 0. -1.
</event>
<event>
 7    1  0.4119299E-008  0.4614232E+02  0.7816164E-02  0.1320468E+00
        -11   -1    0    0    0    0  0.00000000000E+00  0.00000000000E+00  0.45593999997E+02  0.45594000000E+02  0.51100000000E-03 0. -1.
         11   -1    0    0    0    0 -0.00000000000E+00 -0.00000000000E+00 -0.45593999997E+02  0.45594000000E+02  0.51100000000E-03 0.  1.
    9900012    2    1    2    0    0 -0.18460725112E+02 -0.40317635958E+02  0.79248618055E+01  0.46142316793E+02  0.99999911741E+01 0.  0.
        -12    1    1    2    0    0  0.18460725112E+02  0.40317635958E+02 -0.79248618055E+01  0.45045683207E+02  0.00000000000E+00 0.  1.
         11    1    3    3    0    0 -0.40762884386E+01 -0.15362047591E+02  0.41763534164E+01  0.16433215198E+02  0.51100000000E-03 0. -1.
        -11    1    3    3    0    0 -0.63980059584E+01 -0.11777646721E+02 -0.13675982456E+01  0.13472852992E+02  0.51100000000E-03 0.  1.
        -12    1    3    3    0    0 -0.79864307150E+01 -0.13177941646E+02  0.51161066348E+01  0.16236248603E+02  0.00000000000E+00 0.  1.
</event>
<event>
 7    1  0.4119299E-008  0.4614232E+02  0.7816164E-02  0.1320468E+00
        -11   -1    0    0    0    0  0.00000000000E+00  0.00000000000E+00  0.45593999997E+02  0.45594000000E+02  0.51100000000E-03 0.  1.
         11   -1    0    0    0    0 -0.00000000000E+00 -0.00000000000E+00 -0.45593999997E+02  0.45594000000E+02  0.51100000000E-03 0. -1.
    9900012    2    1    2    0    0 -0.25406591945E+02  0.88300326166E+01 -0.36133767481E+02  0.46142317159E+02  0.99999945110E+01 0.  0.
        -12    1    1    2    0    0  0.25406591945E+02 -0.88300326166E+01  0.36133767481E+02  0.45045682841E+02  0.00000000000E+00 0.  1.
         11    1    3    3    0    0 -0.12283455787E+02  0.42551037450E+00 -0.19161335405E+02  0.22764470561E+02  0.51100000000E-03 0. -1.
        -11    1    3    3    0    0 -0.78629793359E+00  0.98432760732E+00 -0.20234135878E+00  0.12759731837E+01  0.51100000000E-03 0.  1.
        -12    1    3    3    0    0 -0.12336838224E+02  0.74201946348E+01 -0.16770090716E+02  0.22101873414E+02  0.00000000000E+00 0.  1.
</event>
<event>
 7    1  0.4119299E-008  0.4614232E+02  0.7816164E-02  0.1320468E+00
        -11   -1    0    0    0    0  0.00000000000E+00  0.00000000000E+00  0.45593999997E+02  0.45594000000E+02  0.51100000000E-03 0.  1.
         11   -1    0    0    0    0 -0.00000000000E+00 -0.00000000000E+00 -0.45593999997E+02  0.45594000000E+02  0.51100000000E-03 0. -1.
    9900012    2    1    2    0    0  0.22960246673E+02 -0.13892588954E+01 -0.38729969178E+02  0.46142317853E+02  0.10000000840E+02 0.  0.
        -12    1    1    2    0    0 -0.22960246673E+02  0.13892588954E+01  0.38729969178E+02  0.45045682147E+02  0.00000000000E+00 0.  1.
         11    1    3    3    0    0  0.10771339725E+02 -0.32906397658E+01 -0.14061395124E+02  0.18015906933E+02  0.51100000000E-03 0. -1.
        -11    1    3    3    0    0  0.35574320131E+01  0.13078346010E+00 -0.13154965560E+02  0.13628116010E+02  0.51100000000E-03 0.  1.
         12    1    3    3    0    0  0.86314749347E+01  0.17705974103E+01 -0.11513608494E+02  0.14498294910E+02  0.00000000000E+00 0. -1.
</event>
<event>
 7    1  0.4119299E-008  0.4614232E+02  0.7816164E-02  0.1320468E+00
        -11   -1    0    0    0    0  0.00000000000E+00  0.00000000000E+00  0.45593999997E+02  0.45594000000E+02  0.51100000000E-03 0. -1.
         11   -1    0    0    0    0 -0.00000000000E+00 -0.00000000000E+00 -0.45593999997E+02  0.45594000000E+02  0.51100000000E-03 0.  1.
    9900012    2    1    2    0    0 -0.42207673768E+02  0.13337710115E+01 -0.15679507014E+02  0.46142316409E+02  0.99999876702E+01 0.  0.
        -12    1    1    2    0    0  0.42207673768E+02 -0.13337710115E+01  0.15679507014E+02  0.45045683591E+02  0.00000000000E+00 0.  1.
         11    1    3    3    0    0 -0.21452468391E+02  0.51117247033E+00 -0.66990569880E+01  0.22479925759E+02  0.51100000000E-03 0. -1.
        -11    1    3    3    0    0 -0.16153208405E+02 -0.23189208893E+01 -0.68010977847E+01  0.17679323155E+02  0.51100000000E-03 0.  1.
        -12    1    3    3    0    0 -0.46019969719E+01  0.31415194304E+01 -0.21793522412E+01  0.59830674952E+01  0.00000000000E+00 0.  1.
</event>
<event>
 7    1  0.4119299E-008  0.4614232E+02  0.7816164E-02  0.1320468E+00
        -11   -1    0    0    0    0  0.00000000000E+00  0.00000000000E+00  0.45593999997E+02  0.45594000000E+02  0.51100000000E-03 0.  1.
         11   -1    0    0    0    0 -0.00000000000E+00 -0.00000000000E+00 -0.45593999997E+02  0.45594000000E+02  0.51100000000E-03 0. -1.
    9900012    2    1    2    0    0 -0.31304723983E+02 -0.19818552568E+02 -0.25619381637E+02  0.46142317799E+02  0.10000000344E+02 0.  0.
        -12    1    1    2    0    0  0.31304723983E+02  0.19818552568E+02  0.25619381637E+02  0.45045682201E+02  0.00000000000E+00 0.  1.
         11    1    3    3    0    0 -0.21436760890E+02 -0.16161130060E+02 -0.16643290376E+02  0.31586642067E+02  0.51100000000E-03 0. -1.
        -11    1    3    3    0    0 -0.98547876982E+01 -0.41256990895E+01 -0.91395630227E+01  0.14059510876E+02  0.51100000000E-03 0.  1.
        -12    1    3    3    0    0 -0.13175394476E-01  0.46827658093E+00  0.16347176251E+00  0.49616485608E+00  0.00000000000E+00 0.  1.
</event>
<event>
 7    1  0.4119299E-008  0.4614232E+02  0.7816164E-02  0.1320468E+00
        -11   -1    0    0    0    0  0.00000000000E+00  0.00000000000E+00  0.45593999997E+02  0.45594000000E+02  0.51100000000E-03 0. -1.
         11   -1    0    0    0    0 -0.00000000000E+00 -0.00000000000E+00 -0.45593999997E+02  0.45594000000E+02  0.51100000000E-03 0.  1.
    9900012    2    1    2    0    0 -0.41838762333E+02 -0.15831761863E+02  0.52902308548E+01  0.46142320299E+02  0.10000023143E+02 0.  0.
        -12    1    1    2    0    0  0.41838762333E+02  0.15831761863E+02 -0.52902308548E+01  0.45045679701E+02  0.00000000000E+00 0.  1.
         11    1    3    3    0    0 -0.22923397451E+01 -0.15490253282E+01 -0.73895984367E+00  0.28636275746E+01  0.51100000000E-03 0. -1.
        -11    1    3    3    0    0 -0.45321622637E+01 -0.46620904528E+00  0.31257276105E+01  0.55252166486E+01  0.51100000000E-03 0.  1.
         12    1    3    3    0    0 -0.35014260324E+02 -0.13816527490E+02  0.29034630880E+01  0.37753476076E+02  0.00000000000E+00 0. -1.
</event>
<event>
 7    1  0.4119299E-008  0.4614232E+02  0.7816164E-02  0.1320468E+00
        -11   -1    0    0    0    0  0.00000000000E+00  0.00000000000E+00  0.45593999997E+02  0.45594000000E+02  0.51100000000E-03 0.  1.
         11   -1    0    0    0    0 -0.00000000000E+00 -0.00000000000E+00 -0.45593999997E+02  0.45594000000E+02  0.51100000000E-03 0. -1.
    9900012    2    1    2    0    0 -0.26166840445E+01 -0.23371140511E+02 -0.38419476971E+02  0.46142318132E+02  0.10000003386E+02 0.  0.
        -12    1    1    2    0    0  0.26166840445E+01  0.23371140511E+02  0.38419476971E+02  0.45045681868E+02  0.00000000000E+00 0.  1.
         11    1    3    3    0    0 -0.46778229008E+01 -0.99225881539E+01 -0.14240275577E+02  0.17975684452E+02  0.51100000000E-03 0. -1.
        -11    1    3    3    0    0  0.25324244076E+00 -0.12131706551E+02 -0.19275016918E+02  0.22776494749E+02  0.51100000000E-03 0.  1.
        -12    1    3    3    0    0  0.18078964156E+01 -0.13168458064E+01 -0.49041844760E+01  0.53901389316E+01  0.00000000000E+00 0.  1.
</event>
<event>
 7    1  0.4119299E-008  0.4614232E+02  0.7816164E-02  0.1320468E+00
        -11   -1    0    0    0    0  0.00000000000E+00  0.00000000000E+00  0.45593999997E+02  0.45594000000E+02  0.51100000000E-03 0.  1.
         11   -1    0    0    0    0 -0.00000000000E+00 -0.00000000000E+00 -0.45593999997E+02  0.45594000000E+02  0.51100000000E-03 0. -1.
    9900012    2    1    2    0    0 -0.15733577587E+02  0.24588314031E+02 -0.34307184752E+02  0.46142316787E+02  0.99999911142E+01 0.  0.
        -12    1    1    2    0    0  0.15733577587E+02 -0.24588314031E+02  0.34307184752E+02  0.45045683213E+02  0.00000000000E+00 0.  1.
         11    1    3    3    0    0 -0.16968415421E+00 -0.14559647672E+00  0.88200306851E-01  0.24035515695E+00  0.51100000000E-03 0.  1.
        -11    1    3    3    0    0 -0.22386130542E+01  0.26275535241E+01 -0.81363766030E+00  0.35464675991E+01  0.51100000000E-03 0. -1.
         12    1    3    3    0    0 -0.13325280378E+02  0.22106356983E+02 -0.33581747398E+02  0.42355494031E+02  0.00000000000E+00 0. -1.
</event>
<event>
 7    1  0.4119299E-008  0.4614232E+02  0.7816164E-02  0.1320468E+00
        -11   -1    0    0    0    0  0.00000000000E+00  0.00000000000E+00  0.45593999997E+02  0.45594000000E+02  0.51100000000E-03 0.  1.
         11   -1    0    0    0    0 -0.00000000000E+00 -0.00000000000E+00 -0.45593999997E+02  0.45594000000E+02  0.51100000000E-03 0. -1.
    9900012    2    1    2    0    0 -0.45002056929E+02 -0.44722232443E+00  0.19308924087E+01  0.46142317842E+02  0.10000000735E+02 0.  0.
        -12    1    1    2    0    0  0.45002056929E+02  0.44722232443E+00 -0.19308924087E+01  0.45045682158E+02  0.00000000000E+00 0.  1.
         11    1    3    3    0    0 -0.10375199382E+02 -0.20289157193E+01  0.20029058918E+01  0.10759781293E+02  0.51100000000E-03 0. -1.
        -11    1    3    3    0    0 -0.13247613120E+02  0.32040470890E+01 -0.23151693337E+01  0.13824803088E+02  0.51100000000E-03 0.  1.
         12    1    3    3    0    0 -0.21379244427E+02 -0.16223536941E+01  0.22431558505E+01  0.21557733460E+02  0.00000000000E+00 0. -1.
</event>
<event>
 7    1  0.4119299E-008  0.4614232E+02  0.7816164E-02  0.1320468E+00
        -11   -1    0    0    0    0  0.00000000000E+00  0.00000000000E+00  0.45593999997E+02  0.45594000000E+02  0.51100000000E-03 0. -1.
         11   -1    0    0    0    0 -0.00000000000E+00 -0.00000000000E+00 -0.45593999997E+02  0.45594000000E+02  0.51100000000E-03 0.  1.
    9900012    2    1    2    0    0 -0.87924649163E+01 -0.17011626002E+02  0.40772670399E+02  0.46142317520E+02  0.99999978059E+01 0.  0.
        -12    1    1    2    0    0  0.87924649163E+01  0.17011626002E+02 -0.40772670399E+02  0.45045682480E+02  0.00000000000E+00 0.  1.
         11    1    3    3    0    0 -0.61308409433E+01 -0.12011654193E+02  0.29139279076E+02  0.32108637973E+02  0.51100000000E-03 0. -1.
        -11    1    3    3    0    0 -0.16360136913E+01 -0.25377856745E+01  0.10837435267E+02  0.11250195570E+02  0.51100000000E-03 0.  1.
         12    1    3    3    0    0 -0.10256102818E+01 -0.24621861345E+01  0.79595605590E+00  0.27834839777E+01  0.00000000000E+00 0. -1.
</event>
<event>
 7    1  0.4119299E-008  0.4614232E+02  0.7816164E-02  0.1320468E+00
        -11   -1    0    0    0    0  0.00000000000E+00  0.00000000000E+00  0.45593999997E+02  0.45594000000E+02  0.51100000000E-03 0.  1.
         11   -1    0    0    0    0 -0.00000000000E+00 -0.00000000000E+00 -0.45593999997E+02  0.45594000000E+02  0.51100000000E-03 0. -1.
    9900012    2    1    2    0    0 -0.28844751670E+02  0.92147411550E+01 -0.33349397416E+02  0.46142318060E+02  0.10000002724E+02 0.  0.
        -12    1    1    2    0    0  0.28844751670E+02 -0.92147411550E+01  0.33349397416E+02  0.45045681940E+02  0.00000000000E+00 0.  1.
         11    1    3    3    0    0 -0.85175853916E+01  0.72033710440E+01 -0.12235293213E+02  0.16557180182E+02  0.51100000000E-03 0.  1.
        -11    1    3    3    0    0 -0.83696740128E+01  0.41740546253E+00 -0.63194569991E+01  0.10495770931E+02  0.51100000000E-03 0. -1.
        -12    1    3    3    0    0 -0.11957492265E+02  0.15939646486E+01 -0.14794647204E+02  0.19089366948E+02  0.00000000000E+00 0.  1.
</event>
<event>
 7    1  0.4119299E-008  0.4614232E+02  0.7816164E-02  0.1320468E+00
        -11   -1    0    0    0    0  0.00000000000E+00  0.00000000000E+00  0.45593999997E+02  0.45594000000E+02  0.51100000000E-03 0.  1.
         11   -1    0    0    0    0 -0.00000000000E+00 -0.00000000000E+00 -0.45593999997E+02  0.45594000000E+02  0.51100000000E-03 0. -1.
    9900012    2    1    2    0    0  0.88970352701E+00  0.90801169699E+01 -0.44112055640E+02  0.46142317084E+02  0.99999938268E+01 0.  0.
        -12    1    1    2    0    0 -0.88970352701E+00 -0.90801169699E+01  0.44112055640E+02  0.45045682916E+02  0.00000000000E+00 0.  1.
         11    1    3    3    0    0  0.32642593415E+01  0.37793967185E+01 -0.12426887902E+02  0.13392788052E+02  0.51100000000E-03 0. -1.
        -11    1    3    3    0    0 -0.16432829409E+01  0.95098349655E+00 -0.20745754395E+01  0.28122254444E+01  0.51100000000E-03 0.  1.
        -12    1    3    3    0    0 -0.73127287357E+00  0.43497367549E+01 -0.29610592299E+02  0.29937303588E+02  0.00000000000E+00 0.  1.
</event>
<event>
 7    1  0.4119299E-008  0.4614232E+02  0.7816164E-02  0.1320468E+00
        -11   -1    0    0    0    0  0.00000000000E+00  0.00000000000E+00  0.45593999997E+02  0.45594000000E+02  0.51100000000E-03 0.  1.
         11   -1    0    0    0    0 -0.00000000000E+00 -0.00000000000E+00 -0.45593999997E+02  0.45594000000E+02  0.51100000000E-03 0. -1.
    9900012    2    1    2    0    0  0.40359447675E+02  0.18970990755E+02 -0.63505836978E+01  0.46142318519E+02  0.10000006907E+02 0.  0.
        -12    1    1    2    0    0 -0.40359447675E+02 -0.18970990755E+02  0.63505836978E+01  0.45045681481E+02  0.00000000000E+00 0.  1.
         11    1    3    3    0    0  0.24406629004E+02  0.11052708695E+02 -0.61312979730E+01  0.27485245568E+02  0.51100000000E-03 0. -1.
        -11    1    3    3    0    0 -0.16303483393E+00  0.26646828616E+00 -0.74640185225E+00  0.80913638576E+00  0.51100000000E-03 0.  1.
         12    1    3    3    0    0  0.16115853505E+02  0.76518137730E+01  0.52711612744E+00  0.17847936565E+02  0.00000000000E+00 0. -1.
</event>
<event>
 7    1  0.4119299E-008  0.4614232E+02  0.7816164E-02  0.1320468E+00
        -11   -1    0    0    0    0  0.00000000000E+00  0.00000000000E+00  0.45593999997E+02  0.45594000000E+02  0.51100000000E-03 0.  1.
         11   -1    0    0    0    0 -0.00000000000E+00 -0.00000000000E+00 -0.45593999997E+02  0.45594000000E+02  0.51100000000E-03 0. -1.
    9900012    2    1    2    0    0 -0.39409576237E+02 -0.21316696318E+02 -0.46472827236E+01  0.46142317879E+02  0.10000001071E+02 0.  0.
        -12    1    1    2    0    0  0.39409576237E+02  0.21316696318E+02  0.46472827236E+01  0.45045682121E+02  0.00000000000E+00 0.  1.
         11    1    3    3    0    0 -0.62019606118E+01 -0.39675026573E+01 -0.24869758476E+01  0.77711287400E+01  0.51100000000E-03 0. -1.
        -11    1    3    3    0    0 -0.60680649339E+01 -0.41202432339E-01 -0.10846252096E+01  0.61643752148E+01  0.51100000000E-03 0.  1.
         12    1    3    3    0    0 -0.27139550691E+02 -0.17307991228E+02 -0.10756816664E+01  0.32206813924E+02  0.00000000000E+00 0. -1.
</event>
<event>
 7    1  0.4119299E-008  0.4614232E+02  0.7816164E-02  0.1320468E+00
        -11   -1    0    0    0    0  0.00000000000E+00  0.00000000000E+00  0.45593999997E+02  0.45594000000E+02  0.51100000000E-03 0.  1.
         11   -1    0    0    0    0 -0.00000000000E+00 -0.00000000000E+00 -0.45593999997E+02  0.45594000000E+02  0.51100000000E-03 0. -1.
    9900012    2    1    2    0    0  0.85748005303E+01 -0.37661296516E+02 -0.23177851995E+02  0.46142320046E+02  0.10000020834E+02 0.  0.
        -12    1    1    2    0    0 -0.85748005303E+01  0.37661296516E+02  0.23177851995E+02  0.45045679954E+02  0.00000000000E+00 0.  1.
         11    1    3    3    0    0  0.45400779332E+01 -0.21895103131E+02 -0.11980625077E+02  0.25368153781E+02  0.51100000000E-03 0. -1.
        -11    1    3    3    0    0  0.48892719726E+01 -0.88838352213E+01 -0.43686362793E+01  0.11041398999E+02  0.51100000000E-03 0.  1.
         12    1    3    3    0    0 -0.85454937557E+00 -0.68823581645E+01 -0.68285906385E+01  0.97327672657E+01  0.00000000000E+00 0. -1.
</event>
<event>
 7    1  0.4119299E-008  0.4614230E+02  0.7816164E-02  0.1320468E+00
        -11   -1    0    0    0    0  0.00000000000E+00  0.00000000000E+00  0.45593999997E+02  0.45594000000E+02  0.51100000000E-03 0. -1.
         11   -1    0    0    0    0 -0.00000000000E+00 -0.00000000000E+00 -0.45593999997E+02  0.45594000000E+02  0.51100000000E-03 0.  1.
    9900012    2    1    2    0    0 -0.10418191417E+02 -0.58928516192E+01  0.43426377783E+02  0.46142304313E+02  0.99998773691E+01 0.  0.
        -12    1    1    2    0    0  0.10418191417E+02  0.58928516192E+01 -0.43426377783E+02  0.45045695687E+02  0.00000000000E+00 0.  1.
         11    1    3    3    0    0 -0.16790669850E+01  0.89526755168E+00  0.69829793961E+01  0.72375943129E+01  0.51100000000E-03 0. -1.
        -11    1    3    3    0    0  0.30976197804E+00 -0.43805410507E+00 -0.24298044390E+00  0.58896828374E+00  0.51100000000E-03 0.  1.
         12    1    3    3    0    0 -0.90488864098E+01 -0.63500650658E+01  0.36686378830E+02  0.38315741716E+02  0.00000000000E+00 0. -1.
</event>
<event>
 7    1  0.4119299E-008  0.4614232E+02  0.7816164E-02  0.1320468E+00
        -11   -1    0    0    0    0  0.00000000000E+00  0.00000000000E+00  0.45593999997E+02  0.45594000000E+02  0.51100000000E-03 0.  1.
         11   -1    0    0    0    0 -0.00000000000E+00 -0.00000000000E+00 -0.45593999997E+02  0.45594000000E+02  0.51100000000E-03 0. -1.
    9900012    2    1    2    0    0 -0.24168500827E+02 -0.18963707185E+02 -0.32945023289E+02  0.46142321162E+02  0.10000031013E+02 0.  0.
        -12    1    1    2    0    0  0.24168500827E+02  0.18963707185E+02  0.32945023289E+02  0.45045678838E+02  0.00000000000E+00 0.  1.
         11    1    3    3    0    0 -0.12686125038E+02 -0.81279284361E+01 -0.14124125269E+02  0.20651680416E+02  0.51100000000E-03 0. -1.
        -11    1    3    3    0    0 -0.53526132105E+00 -0.15668542146E+01 -0.60924054684E+01  0.63133938151E+01  0.51100000000E-03 0.  1.
        -12    1    3    3    0    0 -0.10947114468E+02 -0.92689245345E+01 -0.12728492552E+02  0.19177246931E+02  0.00000000000E+00 0.  1.
</event>
<event>
 7    1  0.4119299E-008  0.4614232E+02  0.7816164E-02  0.1320468E+00
        -11   -1    0    0    0    0  0.00000000000E+00  0.00000000000E+00  0.45593999997E+02  0.45594000000E+02  0.51100000000E-03 0. -1.
         11   -1    0    0    0    0 -0.00000000000E+00 -0.00000000000E+00 -0.45593999997E+02  0.45594000000E+02  0.51100000000E-03 0.  1.
    9900012    2    1    2    0    0  0.47080372745E+01  0.41526930205E+02  0.16806607089E+02  0.46142316644E+02  0.99999898093E+01 0.  0.
        -12    1    1    2    0    0 -0.47080372745E+01 -0.41526930205E+02 -0.16806607089E+02  0.45045683356E+02  0.00000000000E+00 0.  1.
         11    1    3    3    0    0  0.27621879104E+01  0.34297441692E+02  0.12807279879E+02  0.36714719212E+02  0.51100000000E-03 0. -1.
        -11    1    3    3    0    0 -0.97363420968E-01  0.53627256327E+01  0.12103321849E+01  0.54984734342E+01  0.51100000000E-03 0.  1.
        -12    1    3    3    0    0  0.20432127851E+01  0.18667628802E+01  0.27889950254E+01  0.39291239975E+01  0.00000000000E+00 0.  1.
</event>
<event>
 7    1  0.4119299E-008  0.4614232E+02  0.7816164E-02  0.1320468E+00
        -11   -1    0    0    0    0  0.00000000000E+00  0.00000000000E+00  0.45593999997E+02  0.45594000000E+02  0.51100000000E-03 0.  1.
         11   -1    0    0    0    0 -0.00000000000E+00 -0.00000000000E+00 -0.45593999997E+02  0.45594000000E+02  0.51100000000E-03 0. -1.
    9900012    2    1    2    0    0  0.13985851535E+02 -0.41564244291E+02 -0.10291888371E+02  0.46142318599E+02  0.10000007643E+02 0.  0.
        -12    1    1    2    0    0 -0.13985851535E+02  0.41564244291E+02  0.10291888371E+02  0.45045681401E+02  0.00000000000E+00 0.  1.
         11    1    3    3    0    0  0.11992092969E+02 -0.34259330185E+02 -0.10189473431E+02  0.37700628212E+02  0.51100000000E-03 0. -1.
        -11    1    3    3    0    0  0.23241492406E+01 -0.53656757728E+01  0.13441379609E+01  0.59999044418E+01  0.51100000000E-03 0.  1.
         12    1    3    3    0    0 -0.33039067394E+00 -0.19392383326E+01 -0.14465529014E+01  0.24417859457E+01  0.00000000000E+00 0. -1.
</event>
<event>
 7    1  0.4119299E-008  0.4614233E+02  0.7816164E-02  0.1320468E+00
        -11   -1    0    0    0    0  0.00000000000E+00  0.00000000000E+00  0.45593999997E+02  0.45594000000E+02  0.51100000000E-03 0. -1.
         11   -1    0    0    0    0 -0.00000000000E+00 -0.00000000000E+00 -0.45593999997E+02  0.45594000000E+02  0.51100000000E-03 0.  1.
    9900012    2    1    2    0    0 -0.16226055143E+01  0.39015918971E+02  0.22455234178E+02  0.46142330687E+02  0.10000117872E+02 0.  0.
        -12    1    1    2    0    0  0.16226055143E+01 -0.39015918971E+02 -0.22455234178E+02  0.45045669313E+02  0.00000000000E+00 0.  1.
         11    1    3    3    0    0 -0.36941081547E+01  0.24537055472E+02  0.10079338333E+02  0.26782579932E+02  0.51100000000E-03 0. -1.
        -11    1    3    3    0    0  0.92475828254E+00  0.12471724367E+02  0.11088064566E+02  0.16713595144E+02  0.51100000000E-03 0.  1.
        -12    1    3    3    0    0  0.11467443578E+01  0.20071391325E+01  0.12878312796E+01  0.26461556122E+01  0.00000000000E+00 0.  1.
</event>
<event>
 7    1  0.4119299E-008  0.4614232E+02  0.7816164E-02  0.1320468E+00
        -11   -1    0    0    0    0  0.00000000000E+00  0.00000000000E+00  0.45593999997E+02  0.45594000000E+02  0.51100000000E-03 0.  1.
         11   -1    0    0    0    0 -0.00000000000E+00 -0.00000000000E+00 -0.45593999997E+02  0.45594000000E+02  0.51100000000E-03 0. -1.
    9900012    2    1    2    0    0  0.12136083549E+02  0.33828607986E+02  0.27156108448E+02  0.46142317984E+02  0.10000002037E+02 0.  0.
        -12    1    1    2    0    0 -0.12136083549E+02 -0.33828607986E+02 -0.27156108448E+02  0.45045682016E+02  0.00000000000E+00 0.  1.
         11    1    3    3    0    0  0.19112815736E+01  0.11062575929E+02  0.47229325900E+01  0.12179477655E+02  0.51100000000E-03 0. -1.
        -11    1    3    3    0    0 -0.28078913271E+00  0.13976286248E+01  0.30682284256E+00  0.14582005445E+01  0.51100000000E-03 0.  1.
         12    1    3    3    0    0  0.10505591108E+02  0.21368403433E+02  0.22126353016E+02  0.32504639785E+02  0.00000000000E+00 0. -1.
</event>
<event>
 7    1  0.4119299E-008  0.4614232E+02  0.7816164E-02  0.1320468E+00
        -11   -1    0    0    0    0  0.00000000000E+00  0.00000000000E+00  0.45593999997E+02  0.45594000000E+02  0.51100000000E-03 0. -1.
         11   -1    0    0    0    0 -0.00000000000E+00 -0.00000000000E+00 -0.45593999997E+02  0.45594000000E+02  0.51100000000E-03 0.  1.
    9900012    2    1    2    0    0  0.12335162049E+02 -0.40856316499E+02  0.14412448410E+02  0.46142317745E+02  0.99999998559E+01 0.  0.
        -12    1    1    2    0    0 -0.12335162049E+02  0.40856316499E+02 -0.14412448410E+02  0.45045682255E+02  0.00000000000E+00 0.  1.
         11    1    3    3    0    0  0.58995292625E+01 -0.80232144687E+01  0.46933790982E+01  0.11009278975E+02  0.51100000000E-03 0.  1.
        -11    1    3    3    0    0 -0.25704461479E+00 -0.41046780528E+01  0.23182452003E+01  0.47210925559E+01  0.51100000000E-03 0. -1.
        -12    1    3    3    0    0  0.66926774008E+01 -0.28728423977E+02  0.74008241110E+01  0.30411946214E+02  0.00000000000E+00 0.  1.
</event>
<event>
 7    1  0.4119299E-008  0.4614232E+02  0.7816164E-02  0.1320468E+00
        -11   -1    0    0    0    0  0.00000000000E+00  0.00000000000E+00  0.45593999997E+02  0.45594000000E+02  0.51100000000E-03 0.  1.
         11   -1    0    0    0    0 -0.00000000000E+00 -0.00000000000E+00 -0.45593999997E+02  0.45594000000E+02  0.51100000000E-03 0. -1.
    9900012    2    1    2    0    0  0.21597522048E+02 -0.39911007382E+01 -0.39328509003E+02  0.46142318031E+02  0.10000002458E+02 0.  0.
        -12    1    1    2    0    0 -0.21597522048E+02  0.39911007382E+01  0.39328509003E+02  0.45045681969E+02  0.00000000000E+00 0.  1.
         11    1    3    3    0    0  0.13616457204E+02 -0.15452241683E+01 -0.18347708842E+02  0.22900524983E+02  0.51100000000E-03 0. -1.
        -11    1    3    3    0    0 -0.29936391008E+00  0.70218213715E+00 -0.41743450050E+01  0.42435639486E+01  0.51100000000E-03 0.  1.
        -12    1    3    3    0    0  0.82804287547E+01 -0.31480587071E+01 -0.16806455156E+02  0.18998229099E+02  0.00000000000E+00 0.  1.
</event>
<event>
 7    1  0.4119299E-008  0.4614232E+02  0.7816164E-02  0.1320468E+00
        -11   -1    0    0    0    0  0.00000000000E+00  0.00000000000E+00  0.45593999997E+02  0.45594000000E+02  0.51100000000E-03 0. -1.
         11   -1    0    0    0    0 -0.00000000000E+00 -0.00000000000E+00 -0.45593999997E+02  0.45594000000E+02  0.51100000000E-03 0.  1.
    9900012    2    1    2    0    0  0.41894929533E+02  0.10841086029E+02  0.12505968128E+02  0.46142317569E+02  0.99999982517E+01 0.  0.
        -12    1    1    2    0    0 -0.41894929533E+02 -0.10841086029E+02 -0.12505968128E+02  0.45045682431E+02  0.00000000000E+00 0.  1.
         11    1    3    3    0    0  0.64611026795E+01  0.26847680493E+01  0.52778223535E+01  0.87640878801E+01  0.51100000000E-03 0. -1.
        -11    1    3    3    0    0  0.78579899025E+01  0.24106237684E+01 -0.28852355347E+00  0.82244974535E+01  0.51100000000E-03 0.  1.
        -12    1    3    3    0    0  0.27575836951E+02  0.57456942112E+01  0.75166693277E+01  0.29153732236E+02  0.00000000000E+00 0.  1.
</event>
<event>
 7    1  0.4119299E-008  0.4614232E+02  0.7816164E-02  0.1320468E+00
        -11   -1    0    0    0    0  0.00000000000E+00  0.00000000000E+00  0.45593999997E+02  0.45594000000E+02  0.51100000000E-03 0.  1.
         11   -1    0    0    0    0 -0.00000000000E+00 -0.00000000000E+00 -0.45593999997E+02  0.45594000000E+02  0.51100000000E-03 0. -1.
    9900012    2    1    2    0    0  0.35502739181E+02 -0.27706716534E+02 -0.10034607524E+01  0.46142316923E+02  0.99999923553E+01 0.  0.
        -12    1    1    2    0    0 -0.35502739181E+02  0.27706716534E+02  0.10034607524E+01  0.45045683077E+02  0.00000000000E+00 0.  1.
         11    1    3    3    0    0  0.14121289607E+01 -0.22501388597E+01 -0.19464029513E+01  0.32932837411E+01  0.51100000000E-03 0. -1.
        -11    1    3    3    0    0  0.24523174094E+02 -0.15452201685E+02  0.19666696485E+00  0.28986122243E+02  0.51100000000E-03 0.  1.
        -12    1    3    3    0    0  0.95674361260E+01 -0.10004375989E+02  0.74627523399E+00  0.13862910938E+02  0.00000000000E+00 0.  1.
</event>
<event>
 7    1  0.4119299E-008  0.4614232E+02  0.7816164E-02  0.1320468E+00
        -11   -1    0    0    0    0  0.00000000000E+00  0.00000000000E+00  0.45593999997E+02  0.45594000000E+02  0.51100000000E-03 0.  1.
         11   -1    0    0    0    0 -0.00000000000E+00 -0.00000000000E+00 -0.45593999997E+02  0.45594000000E+02  0.51100000000E-03 0. -1.
    9900012    2    1    2    0    0  0.11891974505E+02  0.21901995185E+02 -0.37523282126E+02  0.46142321492E+02  0.10000034024E+02 0.  0.
        -12    1    1    2    0    0 -0.11891974505E+02 -0.21901995185E+02  0.37523282126E+02  0.45045678508E+02  0.00000000000E+00 0.  1.
         11    1    3    3    0    0  0.39564207273E-01  0.47106473062E+00 -0.25806360519E+01  0.26235758042E+01  0.51100000000E-03 0. -1.
        -11    1    3    3    0    0  0.11108449653E+02  0.21932937841E+02 -0.34802127711E+02  0.42610321631E+02  0.51100000000E-03 0.  1.
        -12    1    3    3    0    0  0.74396064494E+00 -0.50200738615E+00 -0.14051836276E+00  0.90842405695E+00  0.00000000000E+00 0.  1.
</event>
<event>
 7    1  0.4119299E-008  0.4614232E+02  0.7816164E-02  0.1320468E+00
        -11   -1    0    0    0    0  0.00000000000E+00  0.00000000000E+00  0.45593999997E+02  0.45594000000E+02  0.51100000000E-03 0.  1.
         11   -1    0    0    0    0 -0.00000000000E+00 -0.00000000000E+00 -0.45593999997E+02  0.45594000000E+02  0.51100000000E-03 0. -1.
    9900012    2    1    2    0    0  0.97660779498E+01  0.36082090244E+02 -0.25136030413E+02  0.46142317190E+02  0.99999947919E+01 0.  0.
        -12    1    1    2    0    0 -0.97660779498E+01 -0.36082090244E+02  0.25136030413E+02  0.45045682810E+02  0.00000000000E+00 0.  1.
         11    1    3    3    0    0  0.14764742631E+01  0.14983437764E+02 -0.10748450765E+02  0.18498988556E+02  0.51100000000E-03 0. -1.
        -11    1    3    3    0    0 -0.87327269755E+00  0.82226732337E+00 -0.15328150644E+01  0.19463429909E+01  0.51100000000E-03 0.  1.
         12    1    3    3    0    0  0.91628763842E+01  0.20276385156E+02 -0.12854764583E+02  0.25696985643E+02  0.00000000000E+00 0. -1.
</event>
<event>
 7    1  0.4119299E-008  0.4614232E+02  0.7816164E-02  0.1320468E+00
        -11   -1    0    0    0    0  0.00000000000E+00  0.00000000000E+00  0.45593999997E+02  0.45594000000E+02  0.51100000000E-03 0.  1.
         11   -1    0    0    0    0 -0.00000000000E+00 -0.00000000000E+00 -0.45593999997E+02  0.45594000000E+02  0.51100000000E-03 0. -1.
    9900012    2    1    2    0    0 -0.43018708318E+02 -0.11644921323E+02 -0.65498154091E+01  0.46142317190E+02  0.99999947900E+01 0.  0.
        -12    1    1    2    0    0  0.43018708318E+02  0.11644921323E+02  0.65498154091E+01  0.45045682810E+02  0.00000000000E+00 0.  1.
         11    1    3    3    0    0 -0.28282968211E+02 -0.69918566971E+01 -0.40595018604E+01  0.29415844481E+02  0.51100000000E-03 0. -1.
        -11    1    3    3    0    0 -0.13190355459E+01 -0.21987368054E+01 -0.16752394748E+01  0.30627970664E+01  0.51100000000E-03 0.  1.
        -12    1    3    3    0    0 -0.13416704561E+02 -0.24543278210E+01 -0.81507407393E+00  0.13663675643E+02  0.00000000000E+00 0.  1.
</event>
<event>
 7    1  0.4119299E-008  0.4614232E+02  0.7816164E-02  0.1320468E+00
        -11   -1    0    0    0    0  0.00000000000E+00  0.00000000000E+00  0.45593999997E+02  0.45594000000E+02  0.51100000000E-03 0.  1.
         11   -1    0    0    0    0 -0.00000000000E+00 -0.00000000000E+00 -0.45593999997E+02  0.45594000000E+02  0.51100000000E-03 0. -1.
    9900012    2    1    2    0    0  0.47261276978E+01  0.29533172740E+01 -0.44699610190E+02  0.46142317443E+02  0.99999970950E+01 0.  0.
        -12    1    1    2    0    0 -0.47261276978E+01 -0.29533172740E+01  0.44699610190E+02  0.45045682557E+02  0.00000000000E+00 0.  1.
         11    1    3    3    0    0 -0.10925064647E+01  0.38315232314E+01 -0.12537410901E+02  0.13155257999E+02  0.51100000000E-03 0. -1.
        -11    1    3    3    0    0  0.15214900039E+01  0.10085108872E+01 -0.35426662875E+01  0.39852867811E+01  0.51100000000E-03 0.  1.
         12    1    3    3    0    0  0.42971441586E+01 -0.18867168446E+01 -0.28619533001E+02  0.29001772663E+02  0.00000000000E+00 0. -1.
</event>
<event>
 7    1  0.4119299E-008  0.4614232E+02  0.7816164E-02  0.1320468E+00
        -11   -1    0    0    0    0  0.00000000000E+00  0.00000000000E+00  0.45593999997E+02  0.45594000000E+02  0.51100000000E-03 0.  1.
         11   -1    0    0    0    0 -0.00000000000E+00 -0.00000000000E+00 -0.45593999997E+02  0.45594000000E+02  0.51100000000E-03 0. -1.
    9900012    2    1    2    0    0 -0.23485744294E+02 -0.38391515642E+02  0.19038929389E+01  0.46142318002E+02  0.10000002197E+02 0.  0.
        -12    1    1    2    0    0  0.23485744294E+02  0.38391515642E+02 -0.19038929389E+01  0.45045681998E+02  0.00000000000E+00 0.  1.
         11    1    3    3    0    0 -0.11397991440E+02 -0.20740576666E+02  0.33728335260E+01  0.23905265854E+02  0.51100000000E-03 0. -1.
        -11    1    3    3    0    0 -0.18449454688E+00 -0.38909980546E+01  0.53920816124E+00  0.39325118946E+01  0.51100000000E-03 0.  1.
         12    1    3    3    0    0 -0.11903258307E+02 -0.13759940921E+02 -0.20081487484E+01  0.18304540253E+02  0.00000000000E+00 0. -1.
</event>
<event>
 7    1  0.4119299E-008  0.4614232E+02  0.7816164E-02  0.1320468E+00
        -11   -1    0    0    0    0  0.00000000000E+00  0.00000000000E+00  0.45593999997E+02  0.45594000000E+02  0.51100000000E-03 0. -1.
         11   -1    0    0    0    0 -0.00000000000E+00 -0.00000000000E+00 -0.45593999997E+02  0.45594000000E+02  0.51100000000E-03 0.  1.
    9900012    2    1    2    0    0 -0.33647381134E+02 -0.25138819045E+02  0.16279036401E+02  0.46142317562E+02  0.99999981858E+01 0.  0.
        -12    1    1    2    0    0  0.33647381134E+02  0.25138819045E+02 -0.16279036401E+02  0.45045682438E+02  0.00000000000E+00 0.  1.
         11    1    3    3    0    0 -0.15447205092E+02 -0.70561355722E+01  0.66999673169E+01  0.18256362087E+02  0.51100000000E-03 0.  1.
        -11    1    3    3    0    0 -0.53675464636E+01 -0.40535898280E+01  0.30852613029E+00  0.67333003918E+01  0.51100000000E-03 0. -1.
         12    1    3    3    0    0 -0.12832629578E+02 -0.14029093645E+02  0.92705429541E+01  0.21152655083E+02  0.00000000000E+00 0. -1.
</event>
<event>
 7    1  0.4119299E-008  0.4614232E+02  0.7816164E-02  0.1320468E+00
        -11   -1    0    0    0    0  0.00000000000E+00  0.00000000000E+00  0.45593999997E+02  0.45594000000E+02  0.51100000000E-03 0.  1.
         11   -1    0    0    0    0 -0.00000000000E+00 -0.00000000000E+00 -0.45593999997E+02  0.45594000000E+02  0.51100000000E-03 0. -1.
    9900012    2    1    2    0    0 -0.21768835616E+02 -0.13315794405E+02 -0.37120357779E+02  0.46142317118E+02  0.99999941352E+01 0.  0.
        -12    1    1    2    0    0  0.21768835616E+02  0.13315794405E+02  0.37120357779E+02  0.45045682882E+02  0.00000000000E+00 0.  1.
         11    1    3    3    0    0 -0.89692424828E+01 -0.31737680816E+01 -0.99949779937E+01  0.13799264470E+02  0.51100000000E-03 0. -1.
        -11    1    3    3    0    0 -0.15001865740E+01 -0.33130068721E+01 -0.25370917714E+01  0.44343442818E+01  0.51100000000E-03 0.  1.
         12    1    3    3    0    0 -0.11299406559E+02 -0.68290194516E+01 -0.24588288013E+02  0.27908708366E+02  0.00000000000E+00 0. -1.
</event>
<event>
 7    1  0.4119299E-008  0.4614232E+02  0.7816164E-02  0.1320468E+00
        -11   -1    0    0    0    0  0.00000000000E+00  0.00000000000E+00  0.45593999997E+02  0.45594000000E+02  0.51100000000E-03 0. -1.
         11   -1    0    0    0    0 -0.00000000000E+00 -0.00000000000E+00 -0.45593999997E+02  0.45594000000E+02  0.51100000000E-03 0.  1.
    9900012    2    1    2    0    0  0.28583195714E+02  0.25788246573E+02  0.23389755416E+02  0.46142318775E+02  0.10000009250E+02 0.  0.
        -12    1    1    2    0    0 -0.28583195714E+02 -0.25788246573E+02 -0.23389755416E+02  0.45045681225E+02  0.00000000000E+00 0.  1.
         11    1    3    3    0    0  0.89361684109E+01  0.64820406797E+01  0.86275859553E+01  0.14010967023E+02  0.51100000000E-03 0. -1.
        -11    1    3    3    0    0  0.13791944634E+02  0.85670619441E+01  0.72867414615E+01  0.17796316712E+02  0.51100000000E-03 0.  1.
         12    1    3    3    0    0  0.58550826697E+01  0.10739143950E+02  0.74754279989E+01  0.14335035040E+02  0.00000000000E+00 0. -1.
</event>
<event>
 7    1  0.4119299E-008  0.4614232E+02  0.7816164E-02  0.1320468E+00
        -11   -1    0    0    0    0  0.00000000000E+00  0.00000000000E+00  0.45593999997E+02  0.45594000000E+02  0.51100000000E-03 0.  1.
         11   -1    0    0    0    0 -0.00000000000E+00 -0.00000000000E+00 -0.45593999997E+02  0.45594000000E+02  0.51100000000E-03 0. -1.
    9900012    2    1    2    0    0 -0.36176620832E+01  0.42568916263E+02 -0.14279822739E+02  0.46142318207E+02  0.10000004062E+02 0.  0.
        -12    1    1    2    0    0  0.36176620832E+01 -0.42568916263E+02  0.14279822739E+02  0.45045681793E+02  0.00000000000E+00 0.  1.
         11    1    3    3    0    0 -0.23890453341E+01  0.95647209431E+01 -0.59524505542E+01  0.11516209975E+02  0.51100000000E-03 0. -1.
        -11    1    3    3    0    0 -0.23618557653E+01  0.14371484900E+02 -0.10897328910E+01  0.14604980620E+02  0.51100000000E-03 0.  1.
         12    1    3    3    0    0  0.11332390162E+01  0.18632710420E+02 -0.72376392937E+01  0.20021127611E+02  0.00000000000E+00 0. -1.
</event>
<event>
 7    1  0.4119299E-008  0.4614232E+02  0.7816164E-02  0.1320468E+00
        -11   -1    0    0    0    0  0.00000000000E+00  0.00000000000E+00  0.45593999997E+02  0.45594000000E+02  0.51100000000E-03 0.  1.
         11   -1    0    0    0    0 -0.00000000000E+00 -0.00000000000E+00 -0.45593999997E+02  0.45594000000E+02  0.51100000000E-03 0. -1.
    9900012    2    1    2    0    0 -0.38202814003E+02  0.68118020785E+01 -0.22874829524E+02  0.46142317953E+02  0.10000001753E+02 0.  0.
        -12    1    1    2    0    0  0.38202814003E+02 -0.68118020785E+01  0.22874829524E+02  0.45045682047E+02  0.00000000000E+00 0.  1.
         11    1    3    3    0    0 -0.18790529353E+02  0.17537114261E+01 -0.89473580296E+01  0.20885753831E+02  0.51100000000E-03 0. -1.
        -11    1    3    3    0    0 -0.17877367362E+02  0.39689798902E+01 -0.99147300175E+01  0.20824383226E+02  0.51100000000E-03 0.  1.
        -12    1    3    3    0    0 -0.15349172877E+01  0.10891107623E+01 -0.40127414772E+01  0.44321808960E+01  0.00000000000E+00 0.  1.
</event>
<event>
 7    1  0.4119299E-008  0.4614232E+02  0.7816164E-02  0.1320468E+00
        -11   -1    0    0    0    0  0.00000000000E+00  0.00000000000E+00  0.45593999997E+02  0.45594000000E+02  0.51100000000E-03 0. -1.
         11   -1    0    0    0    0 -0.00000000000E+00 -0.00000000000E+00 -0.45593999997E+02  0.45594000000E+02  0.51100000000E-03 0.  1.
    9900012    2    1    2    0    0 -0.39629281390E+02 -0.63375085683E+01  0.20456525128E+02  0.46142318979E+02  0.10000011106E+02 0.  0.
        -12    1    1    2    0    0  0.39629281390E+02  0.63375085683E+01 -0.20456525128E+02  0.45045681021E+02  0.00000000000E+00 0.  1.
         11    1    3    3    0    0 -0.20499173564E+02 -0.54870458452E+01  0.11047969802E+02  0.23924494267E+02  0.51100000000E-03 0. -1.
        -11    1    3    3    0    0 -0.16635106153E+02  0.94248235410E+00  0.62066121017E+01  0.17780243636E+02  0.51100000000E-03 0.  1.
        -12    1    3    3    0    0 -0.24950016729E+01 -0.17929450772E+01  0.32019432245E+01  0.44375810765E+01  0.00000000000E+00 0.  1.
</event>
<event>
 7    1  0.4119299E-008  0.4614232E+02  0.7816164E-02  0.1320468E+00
        -11   -1    0    0    0    0  0.00000000000E+00  0.00000000000E+00  0.45593999997E+02  0.45594000000E+02  0.51100000000E-03 0. -1.
         11   -1    0    0    0    0 -0.00000000000E+00 -0.00000000000E+00 -0.45593999997E+02  0.45594000000E+02  0.51100000000E-03 0.  1.
    9900012    2    1    2    0    0 -0.11006555230E+02  0.40938765034E+02 -0.15231111402E+02  0.46142317686E+02  0.99999993193E+01 0.  0.
        -12    1    1    2    0    0  0.11006555230E+02 -0.40938765034E+02  0.15231111402E+02  0.45045682314E+02  0.00000000000E+00 0.  1.
         11    1    3    3    0    0 -0.50162121115E+01  0.19400436861E+02 -0.44367913153E+01  0.20523753355E+02  0.51100000000E-03 0. -1.
        -11    1    3    3    0    0 -0.59211812015E+01  0.96502830400E+01 -0.46938746064E+01  0.12256459875E+02  0.51100000000E-03 0.  1.
         12    1    3    3    0    0 -0.69161917223E-01  0.11888045133E+02 -0.61004454806E+01  0.13362104457E+02  0.00000000000E+00 0. -1.
</event>
<event>
 7    1  0.4119299E-008  0.4614232E+02  0.7816164E-02  0.1320468E+00
        -11   -1    0    0    0    0  0.00000000000E+00  0.00000000000E+00  0.45593999997E+02  0.45594000000E+02  0.51100000000E-03 0.  1.
         11   -1    0    0    0    0 -0.00000000000E+00 -0.00000000000E+00 -0.45593999997E+02  0.45594000000E+02  0.51100000000E-03 0. -1.
    9900012    2    1    2    0    0  0.25829787733E+02 -0.36753131358E+02  0.33380779493E+01  0.46142319149E+02  0.10000012653E+02 0.  0.
        -12    1    1    2    0    0 -0.25829787733E+02  0.36753131358E+02 -0.33380779493E+01  0.45045680851E+02  0.00000000000E+00 0.  1.
         11    1    3    3    0    0  0.99500192417E+01 -0.13413044676E+02  0.41623730115E+01  0.17211565872E+02  0.51100000000E-03 0. -1.
        -11    1    3    3    0    0  0.20420925208E+01 -0.26241855179E+01  0.19654837211E+01  0.38625921367E+01  0.51100000000E-03 0.  1.
         12    1    3    3    0    0  0.13837675971E+02 -0.20715901164E+02 -0.27897787833E+01  0.25068161140E+02  0.00000000000E+00 0. -1.
</event>
<event>
 7    1  0.4119299E-008  0.4614232E+02  0.7816164E-02  0.1320468E+00
        -11   -1    0    0    0    0  0.00000000000E+00  0.00000000000E+00  0.45593999997E+02  0.45594000000E+02  0.51100000000E-03 0. -1.
         11   -1    0    0    0    0 -0.00000000000E+00 -0.00000000000E+00 -0.45593999997E+02  0.45594000000E+02  0.51100000000E-03 0.  1.
    9900012    2    1    2    0    0  0.10486311971E+02 -0.34270881679E+02 -0.27288410943E+02  0.46142318281E+02  0.10000004736E+02 0.  0.
        -12    1    1    2    0    0 -0.10486311971E+02  0.34270881679E+02  0.27288410943E+02  0.45045681719E+02  0.00000000000E+00 0.  1.
         11    1    3    3    0    0  0.40937678483E+00 -0.52366902518E+00  0.45647996613E+00  0.80634534816E+00  0.51100000000E-03 0.  1.
        -11    1    3    3    0    0  0.82937272686E+01 -0.26694581157E+02 -0.25181237826E+02  0.37622882849E+02  0.51100000000E-03 0. -1.
         12    1    3    3    0    0  0.17832079173E+01 -0.70526314970E+01 -0.25636530827E+01  0.77130900835E+01  0.00000000000E+00 0. -1.
</event>
<event>
 7    1  0.4119299E-008  0.4614232E+02  0.7816164E-02  0.1320468E+00
        -11   -1    0    0    0    0  0.00000000000E+00  0.00000000000E+00  0.45593999997E+02  0.45594000000E+02  0.51100000000E-03 0. -1.
         11   -1    0    0    0    0 -0.00000000000E+00 -0.00000000000E+00 -0.45593999997E+02  0.45594000000E+02  0.51100000000E-03 0.  1.
    9900012    2    1    2    0    0  0.23691434743E+02 -0.36223549766E+02 -0.12477324995E+02  0.46142320109E+02  0.10000021406E+02 0.  0.
        -12    1    1    2    0    0 -0.23691434743E+02  0.36223549766E+02  0.12477324995E+02  0.45045679891E+02  0.00000000000E+00 0.  1.
         11    1    3    3    0    0  0.37822198982E+01 -0.33962600504E+01 -0.17365227143E+01  0.53717111879E+01  0.51100000000E-03 0. -1.
        -11    1    3    3    0    0  0.83364333561E+01 -0.17470106206E+02 -0.14419790830E+01  0.19410822648E+02  0.51100000000E-03 0.  1.
        -12    1    3    3    0    0  0.11572781489E+02 -0.15357183510E+02 -0.92988231972E+01  0.21359786272E+02  0.00000000000E+00 0.  1.
</event>
<event>
 7    1  0.4119299E-008  0.4614232E+02  0.7816164E-02  0.1320468E+00
        -11   -1    0    0    0    0  0.00000000000E+00  0.00000000000E+00  0.45593999997E+02  0.45594000000E+02  0.51100000000E-03 0.  1.
         11   -1    0    0    0    0 -0.00000000000E+00 -0.00000000000E+00 -0.45593999997E+02  0.45594000000E+02  0.51100000000E-03 0. -1.
    9900012    2    1    2    0    0  0.13872402821E+02  0.25814310842E+01 -0.42778570025E+02  0.46142318743E+02  0.10000008957E+02 0.  0.
        -12    1    1    2    0    0 -0.13872402821E+02 -0.25814310842E+01  0.42778570025E+02  0.45045681257E+02  0.00000000000E+00 0.  1.
         11    1    3    3    0    0  0.24397904212E+01  0.42845727556E+01 -0.14510613920E+02  0.15325405626E+02  0.51100000000E-03 0. -1.
        -11    1    3    3    0    0  0.10949853982E+02 -0.87841042934E+00 -0.27422782609E+02  0.29541156264E+02  0.51100000000E-03 0.  1.
         12    1    3    3    0    0  0.48275841784E+00 -0.82473124213E+00 -0.84517349615E+00  0.12757568539E+01  0.00000000000E+00 0. -1.
</event>
<event>
 7    1  0.4119299E-008  0.4614232E+02  0.7816164E-02  0.1320468E+00
        -11   -1    0    0    0    0  0.00000000000E+00  0.00000000000E+00  0.45593999997E+02  0.45594000000E+02  0.51100000000E-03 0.  1.
         11   -1    0    0    0    0 -0.00000000000E+00 -0.00000000000E+00 -0.45593999997E+02  0.45594000000E+02  0.51100000000E-03 0. -1.
    9900012    2    1    2    0    0 -0.11483500657E+02 -0.43556828332E+02 -0.21316011632E+00  0.46142317422E+02  0.99999969069E+01 0.  0.
        -12    1    1    2    0    0  0.11483500657E+02  0.43556828332E+02  0.21316011632E+00  0.45045682578E+02  0.00000000000E+00 0.  1.
         11    1    3    3    0    0 -0.41999663208E+01 -0.94762852164E+01  0.13750450576E+01  0.10456120111E+02  0.51100000000E-03 0. -1.
        -11    1    3    3    0    0 -0.31636079385E+01 -0.47982195669E+01 -0.20779763318E+01  0.61114083563E+01  0.51100000000E-03 0.  1.
         12    1    3    3    0    0 -0.41199263976E+01 -0.29282323549E+02  0.48977115786E+00  0.29574788955E+02  0.00000000000E+00 0. -1.
</event>
<event>
 7    1  0.4119299E-008  0.4614232E+02  0.7816164E-02  0.1320468E+00
        -11   -1    0    0    0    0  0.00000000000E+00  0.00000000000E+00  0.45593999997E+02  0.45594000000E+02  0.51100000000E-03 0.  1.
         11   -1    0    0    0    0 -0.00000000000E+00 -0.00000000000E+00 -0.45593999997E+02  0.45594000000E+02  0.51100000000E-03 0. -1.
    9900012    2    1    2    0    0  0.24284255634E+02  0.19875627841E+02 -0.32316369147E+02  0.46142319090E+02  0.10000012119E+02 0.  0.
        -12    1    1    2    0    0 -0.24284255634E+02 -0.19875627841E+02  0.32316369147E+02  0.45045680910E+02  0.00000000000E+00 0.  1.
         11    1    3    3    0    0  0.56187090453E+01  0.65477367622E+01 -0.11898674868E+02  0.14697660083E+02  0.51100000000E-03 0. -1.
        -11    1    3    3    0    0  0.34679563894E+01 -0.10682975460E+00 -0.43699943219E+01  0.55798731841E+01  0.51100000000E-03 0.  1.
         12    1    3    3    0    0  0.15197590199E+02  0.13434720834E+02 -0.16047699957E+02  0.25864785823E+02  0.00000000000E+00 0. -1.
</event>
<event>
 7    1  0.4119299E-008  0.4614232E+02  0.7816164E-02  0.1320468E+00
        -11   -1    0    0    0    0  0.00000000000E+00  0.00000000000E+00  0.45593999997E+02  0.45594000000E+02  0.51100000000E-03 0. -1.
         11   -1    0    0    0    0 -0.00000000000E+00 -0.00000000000E+00 -0.45593999997E+02  0.45594000000E+02  0.51100000000E-03 0.  1.
    9900012    2    1    2    0    0 -0.39547480116E+02  0.17931705333E+02  0.11981828266E+02  0.46142318206E+02  0.10000004054E+02 0.  0.
        -12    1    1    2    0    0  0.39547480116E+02 -0.17931705333E+02 -0.11981828266E+02  0.45045681794E+02  0.00000000000E+00 0.  1.
         11    1    3    3    0    0 -0.22272695776E+02  0.70014096485E+01  0.50530720513E+01  0.23887784569E+02  0.51100000000E-03 0. -1.
        -11    1    3    3    0    0 -0.51274053873E+01  0.18195627211E+01  0.40913364943E+01  0.68073584504E+01  0.51100000000E-03 0.  1.
        -12    1    3    3    0    0 -0.12147378953E+02  0.91107329636E+01  0.28374197207E+01  0.15447175186E+02  0.00000000000E+00 0.  1.
</event>
<event>
 7    1  0.4119299E-008  0.4614232E+02  0.7816164E-02  0.1320468E+00
        -11   -1    0    0    0    0  0.00000000000E+00  0.00000000000E+00  0.45593999997E+02  0.45594000000E+02  0.51100000000E-03 0.  1.
         11   -1    0    0    0    0 -0.00000000000E+00 -0.00000000000E+00 -0.45593999997E+02  0.45594000000E+02  0.51100000000E-03 0. -1.
    9900012    2    1    2    0    0 -0.31136716419E+02 -0.28619446681E+01 -0.32425724573E+02  0.46142318179E+02  0.10000003811E+02 0.  0.
        -12    1    1    2    0    0  0.31136716419E+02  0.28619446681E+01  0.32425724573E+02  0.45045681821E+02  0.00000000000E+00 0.  1.
         11    1    3    3    0    0 -0.19515503778E+02 -0.27517943860E+01 -0.24156920754E+02  0.31176659229E+02  0.51100000000E-03 0.  1.
        -11    1    3    3    0    0 -0.91763420435E+01 -0.10095687293E+01 -0.82187592189E+01  0.12360116734E+02  0.51100000000E-03 0. -1.
        -12    1    3    3    0    0 -0.24448705972E+01  0.89941844722E+00 -0.50044599672E-01  0.26055422166E+01  0.00000000000E+00 0.  1.
</event>
<event>
 7    1  0.4119299E-008  0.4614232E+02  0.7816164E-02  0.1320468E+00
        -11   -1    0    0    0    0  0.00000000000E+00  0.00000000000E+00  0.45593999997E+02  0.45594000000E+02  0.51100000000E-03 0.  1.
         11   -1    0    0    0    0 -0.00000000000E+00 -0.00000000000E+00 -0.45593999997E+02  0.45594000000E+02  0.51100000000E-03 0. -1.
    9900012    2    1    2    0    0  0.69788452087E+01 -0.70797322914E+01 -0.43935026055E+02  0.46142318695E+02  0.10000008515E+02 0.  0.
        -12    1    1    2    0    0 -0.69788452087E+01  0.70797322914E+01  0.43935026055E+02  0.45045681305E+02  0.00000000000E+00 0.  1.
         11    1    3    3    0    0  0.24592613144E+01 -0.41751646945E+01 -0.10124845174E+02  0.11224636141E+02  0.51100000000E-03 0.  1.
        -11    1    3    3    0    0  0.48852051490E+01 -0.26319060647E+01 -0.13414731009E+02  0.14517133573E+02  0.51100000000E-03 0. -1.
        -12    1    3    3    0    0 -0.36562125472E+00 -0.27266153208E+00 -0.20395449872E+02  0.20400548981E+02  0.00000000000E+00 0.  1.
</event>
<event>
 7    1  0.4119299E-008  0.4614232E+02  0.7816164E-02  0.1320468E+00
        -11   -1    0    0    0    0  0.00000000000E+00  0.00000000000E+00  0.45593999997E+02  0.45594000000E+02  0.51100000000E-03 0.  1.
         11   -1    0    0    0    0 -0.00000000000E+00 -0.00000000000E+00 -0.45593999997E+02  0.45594000000E+02  0.51100000000E-03 0. -1.
    9900012    2    1    2    0    0 -0.12062840905E+02 -0.18207562378E+02 -0.39396522234E+02  0.46142318492E+02  0.10000006664E+02 0.  0.
        -12    1    1    2    0    0  0.12062840905E+02  0.18207562378E+02  0.39396522234E+02  0.45045681508E+02  0.00000000000E+00 0.  1.
         11    1    3    3    0    0 -0.73588145301E+01 -0.10517538461E+02 -0.18810218072E+02  0.22772682555E+02  0.51100000000E-03 0.  1.
        -11    1    3    3    0    0 -0.17336779282E+01  0.37661516936E+00 -0.75402801005E+01  0.77461798584E+01  0.51100000000E-03 0. -1.
         12    1    3    3    0    0 -0.29703484463E+01 -0.80666390861E+01 -0.13046024061E+02  0.15623456078E+02  0.00000000000E+00 0. -1.
</event>
<event>
 7    1  0.4119299E-008  0.4614232E+02  0.7816164E-02  0.1320468E+00
        -11   -1    0    0    0    0  0.00000000000E+00  0.00000000000E+00  0.45593999997E+02  0.45594000000E+02  0.51100000000E-03 0. -1.
         11   -1    0    0    0    0 -0.00000000000E+00 -0.00000000000E+00 -0.45593999997E+02  0.45594000000E+02  0.51100000000E-03 0.  1.
    9900012    2    1    2    0    0 -0.31345363595E+02 -0.29002073804E+02  0.14333921118E+02  0.46142318759E+02  0.10000009098E+02 0.  0.
        -12    1    1    2    0    0  0.31345363595E+02  0.29002073804E+02 -0.14333921118E+02  0.45045681241E+02  0.00000000000E+00 0.  1.
         11    1    3    3    0    0 -0.11747562557E+02 -0.80908640618E+01  0.24186433443E+01  0.14467796763E+02  0.51100000000E-03 0. -1.
        -11    1    3    3    0    0 -0.76200783993E+00  0.41002852343E+00  0.62055699132E+00  0.10648335920E+01  0.51100000000E-03 0.  1.
         12    1    3    3    0    0 -0.18835793198E+02 -0.21321238266E+02  0.11294720783E+02  0.30609688404E+02  0.00000000000E+00 0. -1.
</event>
<event>
 7    1  0.4119299E-008  0.4614232E+02  0.7816164E-02  0.1320468E+00
        -11   -1    0    0    0    0  0.00000000000E+00  0.00000000000E+00  0.45593999997E+02  0.45594000000E+02  0.51100000000E-03 0.  1.
         11   -1    0    0    0    0 -0.00000000000E+00 -0.00000000000E+00 -0.45593999997E+02  0.45594000000E+02  0.51100000000E-03 0. -1.
    9900012    2    1    2    0    0 -0.81965846463E+00  0.14029168131E+02 -0.42797477684E+02  0.46142317692E+02  0.99999993724E+01 0.  0.
        -12    1    1    2    0    0  0.81965846463E+00 -0.14029168131E+02  0.42797477684E+02  0.45045682308E+02  0.00000000000E+00 0.  1.
         11    1    3    3    0    0  0.14911046678E+01  0.57685667373E+01 -0.24558169421E+02  0.25270604284E+02  0.51100000000E-03 0. -1.
        -11    1    3    3    0    0 -0.34130511694E+01  0.23740674029E+01 -0.73898029872E+01  0.84790508177E+01  0.51100000000E-03 0.  1.
         12    1    3    3    0    0  0.11022880370E+01  0.58865339904E+01 -0.10849505276E+02  0.12392662590E+02  0.00000000000E+00 0. -1.
</event>
<event>
 7    1  0.4119299E-008  0.4614232E+02  0.7816164E-02  0.1320468E+00
        -11   -1    0    0    0    0  0.00000000000E+00  0.00000000000E+00  0.45593999997E+02  0.45594000000E+02  0.51100000000E-03 0.  1.
         11   -1    0    0    0    0 -0.00000000000E+00 -0.00000000000E+00 -0.45593999997E+02  0.45594000000E+02  0.51100000000E-03 0. -1.
    9900012    2    1    2    0    0 -0.31862651825E+01 -0.19692826372E+02 -0.40387544704E+02  0.46142318037E+02  0.10000002513E+02 0.  0.
        -12    1    1    2    0    0  0.31862651825E+01  0.19692826372E+02  0.40387544704E+02  0.45045681963E+02  0.00000000000E+00 0.  1.
         11    1    3    3    0    0  0.20456314339E+01 -0.18658183995E+01 -0.62825765682E+01  0.68656139463E+01  0.51100000000E-03 0.  1.
        -11    1    3    3    0    0  0.12029583933E+01 -0.15672549105E+01 -0.40066174375E+01  0.44672564737E+01  0.51100000000E-03 0. -1.
        -12    1    3    3    0    0 -0.64348550097E+01 -0.16259753061E+02 -0.30098350698E+02  0.34809447617E+02  0.00000000000E+00 0.  1.
</event>
<event>
 7    1  0.4119299E-008  0.4614232E+02  0.7816164E-02  0.1320468E+00
        -11   -1    0    0    0    0  0.00000000000E+00  0.00000000000E+00  0.45593999997E+02  0.45594000000E+02  0.51100000000E-03 0.  1.
         11   -1    0    0    0    0 -0.00000000000E+00 -0.00000000000E+00 -0.45593999997E+02  0.45594000000E+02  0.51100000000E-03 0. -1.
    9900012    2    1    2    0    0 -0.26681771203E+02 -0.31351464196E+02 -0.18283386280E+02  0.46142318346E+02  0.10000005335E+02 0.  0.
        -12    1    1    2    0    0  0.26681771203E+02  0.31351464196E+02  0.18283386280E+02  0.45045681654E+02  0.00000000000E+00 0.  1.
         11    1    3    3    0    0 -0.12617504523E+02 -0.11495807048E+02 -0.82383477829E+01  0.18953241795E+02  0.51100000000E-03 0. -1.
        -11    1    3    3    0    0 -0.92531021209E+01 -0.93245418703E+01 -0.25075194133E+01  0.13373654468E+02  0.51100000000E-03 0.  1.
        -12    1    3    3    0    0 -0.48111645593E+01 -0.10531115278E+02 -0.75375190834E+01  0.13815422084E+02  0.00000000000E+00 0.  1.
</event>
<event>
 7    1  0.4119299E-008  0.4614232E+02  0.7816164E-02  0.1320468E+00
        -11   -1    0    0    0    0  0.00000000000E+00  0.00000000000E+00  0.45593999997E+02  0.45594000000E+02  0.51100000000E-03 0. -1.
         11   -1    0    0    0    0 -0.00000000000E+00 -0.00000000000E+00 -0.45593999997E+02  0.45594000000E+02  0.51100000000E-03 0.  1.
    9900012    2    1    2    0    0  0.43699551679E+02 -0.10608680487E+02 -0.26302997947E+01  0.46142318790E+02  0.10000009385E+02 0.  0.
        -12    1    1    2    0    0 -0.43699551679E+02  0.10608680487E+02  0.26302997947E+01  0.45045681210E+02  0.00000000000E+00 0.  1.
         11    1    3    3    0    0  0.12683274399E+02 -0.93206788858E+00 -0.22630702456E+01  0.12917263148E+02  0.51100000000E-03 0. -1.
        -11    1    3    3    0    0  0.14600828709E+00 -0.25381103356E+00 -0.89780338662E+00  0.94434614565E+00  0.51100000000E-03 0.  1.
        -12    1    3    3    0    0  0.30870268993E+02 -0.94228015649E+01  0.53057383748E+00  0.32280709497E+02  0.00000000000E+00 0.  1.
</event>
<event>
 7    1  0.4119299E-008  0.4614232E+02  0.7816164E-02  0.1320468E+00
        -11   -1    0    0    0    0  0.00000000000E+00  0.00000000000E+00  0.45593999997E+02  0.45594000000E+02  0.51100000000E-03 0.  1.
         11   -1    0    0    0    0 -0.00000000000E+00 -0.00000000000E+00 -0.45593999997E+02  0.45594000000E+02  0.51100000000E-03 0. -1.
    9900012    2    1    2    0    0  0.15937612565E+02  0.41129566369E+02 -0.91358937637E+01  0.46142320087E+02  0.10000021206E+02 0.  0.
        -12    1    1    2    0    0 -0.15937612565E+02 -0.41129566369E+02  0.91358937637E+01  0.45045679913E+02  0.00000000000E+00 0.  1.
         11    1    3    3    0    0  0.14864284849E+02  0.29053741585E+02 -0.38528829659E+01  0.32862008028E+02  0.51100000000E-03 0. -1.
        -11    1    3    3    0    0 -0.18043725647E+00  0.92900642163E+00 -0.21000922361E+00  0.96938881265E+00  0.51100000000E-03 0.  1.
        -12    1    3    3    0    0  0.12537649718E+01  0.11146818362E+02 -0.50730015742E+01  0.12310923246E+02  0.00000000000E+00 0.  1.
</event>
<event>
 7    1  0.4119299E-008  0.4614232E+02  0.7816164E-02  0.1320468E+00
        -11   -1    0    0    0    0  0.00000000000E+00  0.00000000000E+00  0.45593999997E+02  0.45594000000E+02  0.51100000000E-03 0. -1.
         11   -1    0    0    0    0 -0.00000000000E+00 -0.00000000000E+00 -0.45593999997E+02  0.45594000000E+02  0.51100000000E-03 0.  1.
    9900012    2    1    2    0    0 -0.38541976633E+02 -0.13375711907E+02  0.19097642105E+02  0.46142316902E+02  0.99999921704E+01 0.  0.
        -12    1    1    2    0    0  0.38541976633E+02  0.13375711907E+02 -0.19097642105E+02  0.45045683098E+02  0.00000000000E+00 0.  1.
         11    1    3    3    0    0 -0.65996721904E+00 -0.17129516183E+01  0.69491239842E+00  0.19628202871E+01  0.51100000000E-03 0. -1.
        -11    1    3    3    0    0 -0.39884856714E+01 -0.32435958028E+01  0.13511085492E+01  0.53154892772E+01  0.51100000000E-03 0.  1.
         12    1    3    3    0    0 -0.33893523742E+02 -0.84191644856E+01  0.17051621157E+02  0.38864007338E+02  0.00000000000E+00 0. -1.
</event>
<event>
 7    1  0.4119299E-008  0.4614232E+02  0.7816164E-02  0.1320468E+00
        -11   -1    0    0    0    0  0.00000000000E+00  0.00000000000E+00  0.45593999997E+02  0.45594000000E+02  0.51100000000E-03 0.  1.
         11   -1    0    0    0    0 -0.00000000000E+00 -0.00000000000E+00 -0.45593999997E+02  0.45594000000E+02  0.51100000000E-03 0. -1.
    9900012    2    1    2    0    0  0.22028626618E+01  0.44929634978E+02 -0.23639662833E+01  0.46142322741E+02  0.10000045410E+02 0.  0.
        -12    1    1    2    0    0 -0.22028626618E+01 -0.44929634978E+02  0.23639662833E+01  0.45045677259E+02  0.00000000000E+00 0.  1.
         11    1    3    3    0    0  0.32248089921E+01  0.16994799289E+02 -0.32442469650E+01  0.17599651546E+02  0.51100000000E-03 0. -1.
        -11    1    3    3    0    0  0.18309691919E+01  0.78830841684E+01  0.17115471306E+01  0.82719319405E+01  0.51100000000E-03 0.  1.
         12    1    3    3    0    0 -0.28529155222E+01  0.20051751520E+02 -0.83126644884E+00  0.20270739254E+02  0.00000000000E+00 0. -1.
</event>
<event>
 7    1  0.4119299E-008  0.4614232E+02  0.7816164E-02  0.1320468E+00
        -11   -1    0    0    0    0  0.00000000000E+00  0.00000000000E+00  0.45593999997E+02  0.45594000000E+02  0.51100000000E-03 0.  1.
         11   -1    0    0    0    0 -0.00000000000E+00 -0.00000000000E+00 -0.45593999997E+02  0.45594000000E+02  0.51100000000E-03 0. -1.
    9900012    2    1    2    0    0  0.17798159575E+02  0.32664802510E+02 -0.25403732072E+02  0.46142318626E+02  0.10000007888E+02 0.  0.
        -12    1    1    2    0    0 -0.17798159575E+02 -0.32664802510E+02  0.25403732072E+02  0.45045681374E+02  0.00000000000E+00 0.  1.
         11    1    3    3    0    0  0.17446415099E+01  0.35131708484E+01 -0.24356341394E+01  0.46171914981E+01  0.51100000000E-03 0. -1.
        -11    1    3    3    0    0  0.15690673700E+00 -0.37851263072E+00  0.45950766269E+00  0.61566150515E+00  0.51100000000E-03 0.  1.
        -12    1    3    3    0    0  0.15896611328E+02  0.29530144292E+02 -0.23427605596E+02  0.40909465623E+02  0.00000000000E+00 0.  1.
</event>
<event>
 7    1  0.4119299E-008  0.4614232E+02  0.7816164E-02  0.1320468E+00
        -11   -1    0    0    0    0  0.00000000000E+00  0.00000000000E+00  0.45593999997E+02  0.45594000000E+02  0.51100000000E-03 0.  1.
         11   -1    0    0    0    0 -0.00000000000E+00 -0.00000000000E+00 -0.45593999997E+02  0.45594000000E+02  0.51100000000E-03 0. -1.
    9900012    2    1    2    0    0 -0.28587453637E+02 -0.33153956746E+02 -0.10615372059E+02  0.46142317884E+02  0.10000001118E+02 0.  0.
        -12    1    1    2    0    0  0.28587453637E+02  0.33153956746E+02  0.10615372059E+02  0.45045682116E+02  0.00000000000E+00 0.  1.
         11    1    3    3    0    0 -0.10729417333E+02 -0.10532612207E+02 -0.76010047026E+01  0.16847302127E+02  0.51100000000E-03 0. -1.
        -11    1    3    3    0    0 -0.53269780064E+01 -0.56963940533E+01 -0.26363875885E+01  0.82326265353E+01  0.51100000000E-03 0.  1.
        -12    1    3    3    0    0 -0.12531058297E+02 -0.16924950486E+02 -0.37797976753E+00  0.21062389221E+02  0.00000000000E+00 0.  1.
</event>
<event>
 7    1  0.4119299E-008  0.4614232E+02  0.7816164E-02  0.1320468E+00
        -11   -1    0    0    0    0  0.00000000000E+00  0.00000000000E+00  0.45593999997E+02  0.45594000000E+02  0.51100000000E-03 0.  1.
         11   -1    0    0    0    0 -0.00000000000E+00 -0.00000000000E+00 -0.45593999997E+02  0.45594000000E+02  0.51100000000E-03 0. -1.
    9900012    2    1    2    0    0 -0.15764333777E+02  0.11519969073E+02 -0.40594206618E+02  0.46142317434E+02  0.99999970164E+01 0.  0.
        -12    1    1    2    0    0  0.15764333777E+02 -0.11519969073E+02  0.40594206618E+02  0.45045682566E+02  0.00000000000E+00 0.  1.
         11    1    3    3    0    0 -0.60704623403E+01  0.56999242932E+01 -0.19443010982E+02  0.21151130615E+02  0.51100000000E-03 0. -1.
        -11    1    3    3    0    0 -0.59164337043E+01  0.44649363920E+01 -0.19092489688E+02  0.20480796066E+02  0.51100000000E-03 0.  1.
        -12    1    3    3    0    0 -0.37774377319E+01  0.13551083883E+01 -0.20587059485E+01  0.45103907530E+01  0.00000000000E+00 0.  1.
</event>
<event>
 7    1  0.4119299E-008  0.4614232E+02  0.7816164E-02  0.1320468E+00
        -11   -1    0    0    0    0  0.00000000000E+00  0.00000000000E+00  0.45593999997E+02  0.45594000000E+02  0.51100000000E-03 0.  1.
         11   -1    0    0    0    0 -0.00000000000E+00 -0.00000000000E+00 -0.45593999997E+02  0.45594000000E+02  0.51100000000E-03 0. -1.
    9900012    2    1    2    0    0 -0.86983394320E+01 -0.27497954143E+02 -0.34602238783E+02  0.46142317413E+02  0.99999968238E+01 0.  0.
        -12    1    1    2    0    0  0.86983394320E+01  0.27497954143E+02  0.34602238783E+02  0.45045682587E+02  0.00000000000E+00 0.  1.
         11    1    3    3    0    0  0.48379527271E+00 -0.10394425554E+01  0.79998764632E-01  0.11493035958E+01  0.51100000000E-03 0. -1.
        -11    1    3    3    0    0 -0.75872033693E+00 -0.17806579364E+01 -0.56367618009E+01  0.59598224048E+01  0.51100000000E-03 0.  1.
         12    1    3    3    0    0 -0.84234143678E+01 -0.24677853651E+02 -0.29045475747E+02  0.39033191412E+02  0.00000000000E+00 0. -1.
</event>
<event>
 7    1  0.4119299E-008  0.4614232E+02  0.7816164E-02  0.1320468E+00
        -11   -1    0    0    0    0  0.00000000000E+00  0.00000000000E+00  0.45593999997E+02  0.45594000000E+02  0.51100000000E-03 0.  1.
         11   -1    0    0    0    0 -0.00000000000E+00 -0.00000000000E+00 -0.45593999997E+02  0.45594000000E+02  0.51100000000E-03 0. -1.
    9900012    2    1    2    0    0 -0.84430018269E+01 -0.11957721721E+02 -0.42600966148E+02  0.46142315352E+02  0.99999780353E+01 0.  0.
        -12    1    1    2    0    0  0.84430018269E+01  0.11957721721E+02  0.42600966148E+02  0.45045684648E+02  0.00000000000E+00 0.  1.
         11    1    3    3    0    0 -0.16789226751E+01 -0.22457152323E+01 -0.13394624245E+02  0.13684954410E+02  0.51100000000E-03 0. -1.
        -11    1    3    3    0    0  0.97117503877E+00 -0.42885101310E+00 -0.78340680040E+01  0.79056761823E+01  0.51100000000E-03 0.  1.
         12    1    3    3    0    0 -0.77352541906E+01 -0.92831554751E+01 -0.21372273899E+02  0.24551684761E+02  0.00000000000E+00 0. -1.
</event>
<event>
 7    1  0.4119299E-008  0.4614232E+02  0.7816164E-02  0.1320468E+00
        -11   -1    0    0    0    0  0.00000000000E+00  0.00000000000E+00  0.45593999997E+02  0.45594000000E+02  0.51100000000E-03 0.  1.
         11   -1    0    0    0    0 -0.00000000000E+00 -0.00000000000E+00 -0.45593999997E+02  0.45594000000E+02  0.51100000000E-03 0. -1.
    9900012    2    1    2    0    0  0.19810369372E+02 -0.22078371705E+02 -0.33899974704E+02  0.46142317446E+02  0.99999971296E+01 0.  0.
        -12    1    1    2    0    0 -0.19810369372E+02  0.22078371705E+02  0.33899974704E+02  0.45045682554E+02  0.00000000000E+00 0.  1.
         11    1    3    3    0    0  0.78255373386E+01 -0.36663695557E+01 -0.11608104752E+02  0.14471675665E+02  0.51100000000E-03 0. -1.
        -11    1    3    3    0    0 -0.82734707410E-01  0.15959758846E+00  0.73868366323E-01  0.19435333472E+00  0.51100000000E-03 0.  1.
        -12    1    3    3    0    0  0.12067566741E+02 -0.18571599737E+02 -0.22365738319E+02  0.31476288447E+02  0.00000000000E+00 0.  1.
</event>
<event>
 7    1  0.4119299E-008  0.4614232E+02  0.7816164E-02  0.1320468E+00
        -11   -1    0    0    0    0  0.00000000000E+00  0.00000000000E+00  0.45593999997E+02  0.45594000000E+02  0.51100000000E-03 0.  1.
         11   -1    0    0    0    0 -0.00000000000E+00 -0.00000000000E+00 -0.45593999997E+02  0.45594000000E+02  0.51100000000E-03 0. -1.
    9900012    2    1    2    0    0 -0.56237157960E+01  0.31502508742E+02 -0.31702984606E+02  0.46142317972E+02  0.10000001923E+02 0.  0.
        -12    1    1    2    0    0  0.56237157960E+01 -0.31502508742E+02  0.31702984606E+02  0.45045682028E+02  0.00000000000E+00 0.  1.
         11    1    3    3    0    0 -0.17074848120E+00  0.42405250611E+01 -0.15237685989E+01  0.45092215339E+01  0.51100000000E-03 0. -1.
        -11    1    3    3    0    0 -0.44132249370E+01  0.66507739360E+01 -0.72318634174E+01  0.10770756568E+02  0.51100000000E-03 0.  1.
        -12    1    3    3    0    0 -0.10397423778E+01  0.20611209745E+02 -0.22947352590E+02  0.30862339870E+02  0.00000000000E+00 0.  1.
</event>
<event>
 7    1  0.4119299E-008  0.4614232E+02  0.7816164E-02  0.1320468E+00
        -11   -1    0    0    0    0  0.00000000000E+00  0.00000000000E+00  0.45593999997E+02  0.45594000000E+02  0.51100000000E-03 0. -1.
         11   -1    0    0    0    0 -0.00000000000E+00 -0.00000000000E+00 -0.45593999997E+02  0.45594000000E+02  0.51100000000E-03 0.  1.
    9900012    2    1    2    0    0 -0.33769362715E+02  0.12804055035E+02  0.26922096190E+02  0.46142323773E+02  0.10000054820E+02 0.  0.
        -12    1    1    2    0    0  0.33769362715E+02 -0.12804055035E+02 -0.26922096190E+02  0.45045676227E+02  0.00000000000E+00 0.  1.
         11    1    3    3    0    0 -0.56367712948E+01  0.18285416812E+01  0.85552031537E+01  0.10407125279E+02  0.51100000000E-03 0. -1.
        -11    1    3    3    0    0 -0.16250422065E+02  0.87519774683E+01  0.12551504306E+02  0.22320698633E+02  0.51100000000E-03 0.  1.
        -12    1    3    3    0    0 -0.11882169355E+02  0.22235358852E+01  0.58153887307E+01  0.13414499860E+02  0.00000000000E+00 0.  1.
</event>
<event>
 7    1  0.4119299E-008  0.4614232E+02  0.7816164E-02  0.1320468E+00
        -11   -1    0    0    0    0  0.00000000000E+00  0.00000000000E+00  0.45593999997E+02  0.45594000000E+02  0.51100000000E-03 0.  1.
         11   -1    0    0    0    0 -0.00000000000E+00 -0.00000000000E+00 -0.45593999997E+02  0.45594000000E+02  0.51100000000E-03 0. -1.
    9900012    2    1    2    0    0 -0.29958643161E+02 -0.30958023173E+02  0.13160313870E+02  0.46142319186E+02  0.10000012997E+02 0.  0.
        -12    1    1    2    0    0  0.29958643161E+02  0.30958023173E+02 -0.13160313870E+02  0.45045680814E+02  0.00000000000E+00 0.  1.
         11    1    3    3    0    0 -0.10225699945E+02 -0.58242804086E+01  0.99449644744E+00  0.11810004449E+02  0.51100000000E-03 0. -1.
        -11    1    3    3    0    0 -0.10661144171E+02 -0.13906262023E+02  0.83007178216E+01  0.19389327866E+02  0.51100000000E-03 0.  1.
         12    1    3    3    0    0 -0.90717990446E+01 -0.11227480741E+02  0.38650996006E+01  0.14942986871E+02  0.00000000000E+00 0. -1.
</event>
<event>
 7    1  0.4119299E-008  0.4614232E+02  0.7816164E-02  0.1320468E+00
        -11   -1    0    0    0    0  0.00000000000E+00  0.00000000000E+00  0.45593999997E+02  0.45594000000E+02  0.51100000000E-03 0. -1.
         11   -1    0    0    0    0 -0.00000000000E+00 -0.00000000000E+00 -0.45593999997E+02  0.45594000000E+02  0.51100000000E-03 0.  1.
    9900012    2    1    2    0    0  0.35137685773E+02  0.26478232218E+02  0.96622801858E+01  0.46142318728E+02  0.10000008812E+02 0.  0.
        -12    1    1    2    0    0 -0.35137685773E+02 -0.26478232218E+02 -0.96622801858E+01  0.45045681272E+02  0.00000000000E+00 0.  1.
         11    1    3    3    0    0  0.22208950261E+01  0.12917226436E+01  0.15238521124E+01  0.29871470715E+01  0.51100000000E-03 0. -1.
        -11    1    3    3    0    0  0.16528460407E+02  0.72052558985E+01  0.27917088138E+01  0.18245529708E+02  0.51100000000E-03 0.  1.
         12    1    3    3    0    0  0.16388330341E+02  0.17981253676E+02  0.53467192596E+01  0.24909641948E+02  0.00000000000E+00 0. -1.
</event>
<event>
 7    1  0.4119299E-008  0.4614232E+02  0.7816164E-02  0.1320468E+00
        -11   -1    0    0    0    0  0.00000000000E+00  0.00000000000E+00  0.45593999997E+02  0.45594000000E+02  0.51100000000E-03 0.  1.
         11   -1    0    0    0    0 -0.00000000000E+00 -0.00000000000E+00 -0.45593999997E+02  0.45594000000E+02  0.51100000000E-03 0. -1.
    9900012    2    1    2    0    0 -0.26551030746E+02  0.52909555200E+01 -0.36002250237E+02  0.46142318009E+02  0.10000002256E+02 0.  0.
        -12    1    1    2    0    0  0.26551030746E+02 -0.52909555200E+01  0.36002250237E+02  0.45045681991E+02  0.00000000000E+00 0.  1.
         11    1    3    3    0    0 -0.73586121025E+01  0.51746957567E+01 -0.13460268850E+02  0.16189672202E+02  0.51100000000E-03 0. -1.
        -11    1    3    3    0    0 -0.34722505442E+01 -0.46716848257E+00 -0.18562876335E+01  0.39649179401E+01  0.51100000000E-03 0.  1.
        -12    1    3    3    0    0 -0.15720168099E+02  0.58342824590E+00 -0.20685693753E+02  0.25987727866E+02  0.00000000000E+00 0.  1.
</event>
<event>
 7    1  0.4119299E-008  0.4614232E+02  0.7816164E-02  0.1320468E+00
        -11   -1    0    0    0    0  0.00000000000E+00  0.00000000000E+00  0.45593999997E+02  0.45594000000E+02  0.51100000000E-03 0.  1.
         11   -1    0    0    0    0 -0.00000000000E+00 -0.00000000000E+00 -0.45593999997E+02  0.45594000000E+02  0.51100000000E-03 0. -1.
    9900012    2    1    2    0    0  0.25795575929E+02  0.36130609247E+02 -0.76341852511E+01  0.46142318226E+02  0.10000004236E+02 0.  0.
        -12    1    1    2    0    0 -0.25795575929E+02 -0.36130609247E+02  0.76341852511E+01  0.45045681774E+02  0.00000000000E+00 0.  1.
         11    1    3    3    0    0 -0.32265791204E+00  0.66249414443E-01 -0.41276153310E+00  0.52808091941E+00  0.51100000000E-03 0. -1.
        -11    1    3    3    0    0  0.78915692330E+01  0.67330065365E+01 -0.31536789459E+01  0.10842321391E+02  0.51100000000E-03 0.  1.
         12    1    3    3    0    0  0.18226664608E+02  0.29331353296E+02 -0.40677447721E+01  0.34771915916E+02  0.00000000000E+00 0. -1.
</event>
<event>
 7    1  0.4119299E-008  0.4614231E+02  0.7816164E-02  0.1320468E+00
        -11   -1    0    0    0    0  0.00000000000E+00  0.00000000000E+00  0.45593999997E+02  0.45594000000E+02  0.51100000000E-03 0. -1.
         11   -1    0    0    0    0 -0.00000000000E+00 -0.00000000000E+00 -0.45593999997E+02  0.45594000000E+02  0.51100000000E-03 0.  1.
    9900012    2    1    2    0    0 -0.16784125265E+02 -0.40721093911E+02 -0.94445435740E+01  0.46142314817E+02  0.99999731564E+01 0.  0.
        -12    1    1    2    0    0  0.16784125265E+02  0.40721093911E+02  0.94445435740E+01  0.45045685183E+02  0.00000000000E+00 0.  1.
         11    1    3    3    0    0 -0.21716224956E+01 -0.19896176004E+01  0.11255788274E+01  0.31530065678E+01  0.51100000000E-03 0. -1.
        -11    1    3    3    0    0  0.24980770060E+00 -0.23408851568E+01 -0.77859715183E+00  0.24795888753E+01  0.51100000000E-03 0.  1.
         12    1    3    3    0    0 -0.14862310470E+02 -0.36390591154E+02 -0.97915252496E+01  0.40509719374E+02  0.00000000000E+00 0. -1.
</event>
<event>
 7    1  0.4119299E-008  0.4614232E+02  0.7816164E-02  0.1320468E+00
        -11   -1    0    0    0    0  0.00000000000E+00  0.00000000000E+00  0.45593999997E+02  0.45594000000E+02  0.51100000000E-03 0. -1.
         11   -1    0    0    0    0 -0.00000000000E+00 -0.00000000000E+00 -0.45593999997E+02  0.45594000000E+02  0.51100000000E-03 0.  1.
    9900012    2    1    2    0    0  0.90582473885E+01  0.54547539185E+01  0.43787066167E+02  0.46142319302E+02  0.10000014048E+02 0.  0.
        -12    1    1    2    0    0 -0.90582473885E+01 -0.54547539185E+01 -0.43787066167E+02  0.45045680698E+02  0.00000000000E+00 0.  1.
         11    1    3    3    0    0  0.26738442534E+01 -0.18410778017E+01  0.73458691988E+01  0.80312393259E+01  0.51100000000E-03 0. -1.
        -11    1    3    3    0    0  0.22287433244E+01  0.43220616199E+01  0.93168586927E+01  0.10509584655E+02  0.51100000000E-03 0.  1.
        -12    1    3    3    0    0  0.41556598107E+01  0.29737701002E+01  0.27124338276E+02  0.27601495321E+02  0.00000000000E+00 0.  1.
</event>
<event>
 7    1  0.4119299E-008  0.4614232E+02  0.7816164E-02  0.1320468E+00
        -11   -1    0    0    0    0  0.00000000000E+00  0.00000000000E+00  0.45593999997E+02  0.45594000000E+02  0.51100000000E-03 0.  1.
         11   -1    0    0    0    0 -0.00000000000E+00 -0.00000000000E+00 -0.45593999997E+02  0.45594000000E+02  0.51100000000E-03 0. -1.
    9900012    2    1    2    0    0 -0.30520229483E+02  0.12260632104E+02 -0.30778337389E+02  0.46142316969E+02  0.99999927770E+01 0.  0.
        -12    1    1    2    0    0  0.30520229483E+02 -0.12260632104E+02  0.30778337389E+02  0.45045683031E+02  0.00000000000E+00 0.  1.
         11    1    3    3    0    0 -0.12358817314E+01 -0.91186981322E-01 -0.16630233772E+01  0.20739734169E+01  0.51100000000E-03 0. -1.
        -11    1    3    3    0    0 -0.19703467182E+02  0.11698179731E+02 -0.16610792269E+02  0.28301809979E+02  0.51100000000E-03 0.  1.
        -12    1    3    3    0    0 -0.95808805698E+01  0.65363935384E+00 -0.12504521743E+02  0.15766533573E+02  0.00000000000E+00 0.  1.
</event>
<event>
 7    1  0.4119299E-008  0.4614231E+02  0.7816164E-02  0.1320468E+00
        -11   -1    0    0    0    0  0.00000000000E+00  0.00000000000E+00  0.45593999997E+02  0.45594000000E+02  0.51100000000E-03 0.  1.
         11   -1    0    0    0    0 -0.00000000000E+00 -0.00000000000E+00 -0.45593999997E+02  0.45594000000E+02  0.51100000000E-03 0. -1.
    9900012    2    1    2    0    0  0.38577189605E+02 -0.22014482769E+02  0.75017943642E+01  0.46142312880E+02  0.99999554879E+01 0.  0.
        -12    1    1    2    0    0 -0.38577189605E+02  0.22014482769E+02 -0.75017943642E+01  0.45045687120E+02  0.00000000000E+00 0.  1.
         11    1    3    3    0    0  0.17424181560E+02 -0.59971322912E+01  0.52364382673E+01  0.19156930462E+02  0.51100000000E-03 0. -1.
        -11    1    3    3    0    0  0.26426141461E+00 -0.51266366706E+00  0.72396401476E+00  0.92562534892E+00  0.51100000000E-03 0.  1.
         12    1    3    3    0    0  0.20888746631E+02 -0.15504686811E+02  0.15413920821E+01  0.26059757068E+02  0.00000000000E+00 0. -1.
</event>
<event>
 7    1  0.4450190E-008  0.4614232E+02  0.7816164E-02  0.1320468E+00
        -11   -1    0    0    0    0  0.00000000000E+00  0.00000000000E+00  0.45593999997E+02  0.45594000000E+02  0.51100000000E-03 0. -1.
         11   -1    0    0    0    0 -0.00000000000E+00 -0.00000000000E+00 -0.45593999997E+02  0.45594000000E+02  0.51100000000E-03 0.  1.
    9900012    2    1    2    0    0 -0.11360631107E+02 -0.41037683675E+02  0.14695510093E+02  0.46142318327E+02  0.10000005158E+02 0.  0.
        -12    1    1    2    0    0  0.11360631107E+02  0.41037683675E+02 -0.14695510093E+02  0.45045681673E+02  0.00000000000E+00 0.  1.
         11    1    3    3    0    0 -0.33721919492E+01 -0.12121337537E+02  0.63026627388E+01  0.14072031129E+02  0.51100000000E-03 0. -1.
        -11    1    3    3    0    0 -0.22289044631E+01 -0.12917546343E+01  0.16433957135E+01  0.30557151165E+01  0.51100000000E-03 0.  1.
         12    1    3    3    0    0 -0.57595346951E+01 -0.27624591503E+02  0.67494516402E+01  0.29014572082E+02  0.00000000000E+00 0. -1.
</event>
<event>
 7    1  0.4119299E-008  0.4614232E+02  0.7816164E-02  0.1320468E+00
        -11   -1    0    0    0    0  0.00000000000E+00  0.00000000000E+00  0.45593999997E+02  0.45594000000E+02  0.51100000000E-03 0. -1.
         11   -1    0    0    0    0 -0.00000000000E+00 -0.00000000000E+00 -0.45593999997E+02  0.45594000000E+02  0.51100000000E-03 0.  1.
    9900012    2    1    2    0    0  0.18167569815E+02 -0.88175859457E+01  0.40265407616E+02  0.46142318017E+02  0.10000002331E+02 0.  0.
        -12    1    1    2    0    0 -0.18167569815E+02  0.88175859457E+01 -0.40265407616E+02  0.45045681983E+02  0.00000000000E+00 0.  1.
         11    1    3    3    0    0  0.63346163323E+01 -0.47964980858E+01  0.21961080171E+02  0.23354288696E+02  0.51100000000E-03 0. -1.
        -11    1    3    3    0    0  0.82056474566E+01 -0.44906061826E+01  0.15779360513E+02  0.18343565971E+02  0.51100000000E-03 0.  1.
        -12    1    3    3    0    0  0.36273060257E+01  0.46951832270E+00  0.25249669318E+01  0.44444633496E+01  0.00000000000E+00 0.  1.
</event>
<event>
 7    1  0.4119299E-008  0.4614232E+02  0.7816164E-02  0.1320468E+00
        -11   -1    0    0    0    0  0.00000000000E+00  0.00000000000E+00  0.45593999997E+02  0.45594000000E+02  0.51100000000E-03 0.  1.
         11   -1    0    0    0    0 -0.00000000000E+00 -0.00000000000E+00 -0.45593999997E+02  0.45594000000E+02  0.51100000000E-03 0. -1.
    9900012    2    1    2    0    0 -0.10208139211E+02 -0.43676538925E+02  0.41554002452E+01  0.46142317523E+02  0.99999978321E+01 0.  0.
        -12    1    1    2    0    0  0.10208139211E+02  0.43676538925E+02 -0.41554002452E+01  0.45045682477E+02  0.00000000000E+00 0.  1.
         11    1    3    3    0    0 -0.45839140369E+01 -0.20329495001E+02  0.44070055423E+00  0.20844540103E+02  0.51100000000E-03 0. -1.
        -11    1    3    3    0    0  0.10024023761E+01 -0.92758661607E+01  0.10281815966E+00  0.93304381135E+01  0.51100000000E-03 0.  1.
         12    1    3    3    0    0 -0.66266275501E+01 -0.14071177763E+02  0.36118815313E+01  0.15967339307E+02  0.00000000000E+00 0. -1.
</event>
<event>
 7    1  0.4119299E-008  0.4614232E+02  0.7816164E-02  0.1320468E+00
        -11   -1    0    0    0    0  0.00000000000E+00  0.00000000000E+00  0.45593999997E+02  0.45594000000E+02  0.51100000000E-03 0.  1.
         11   -1    0    0    0    0 -0.00000000000E+00 -0.00000000000E+00 -0.45593999997E+02  0.45594000000E+02  0.51100000000E-03 0. -1.
    9900012    2    1    2    0    0 -0.13952914539E+02  0.56739470353E+01 -0.42452749847E+02  0.46142317980E+02  0.10000001996E+02 0.  0.
        -12    1    1    2    0    0  0.13952914539E+02 -0.56739470353E+01  0.42452749847E+02  0.45045682020E+02  0.00000000000E+00 0.  1.
         11    1    3    3    0    0 -0.67327916438E+01 -0.28320213694E+00 -0.18059719354E+02  0.19275999330E+02  0.51100000000E-03 0. -1.
        -11    1    3    3    0    0 -0.38234257303E+01  0.50991577376E+01 -0.21160444760E+02  0.22099421184E+02  0.51100000000E-03 0.  1.
        -12    1    3    3    0    0 -0.33966971650E+01  0.85799143461E+00 -0.32325857323E+01  0.47668974657E+01  0.00000000000E+00 0.  1.
</event>
<event>
 7    1  0.4119299E-008  0.4614232E+02  0.7816164E-02  0.1320468E+00
        -11   -1    0    0    0    0  0.00000000000E+00  0.00000000000E+00  0.45593999997E+02  0.45594000000E+02  0.51100000000E-03 0.  1.
         11   -1    0    0    0    0 -0.00000000000E+00 -0.00000000000E+00 -0.45593999997E+02  0.45594000000E+02  0.51100000000E-03 0. -1.
    9900012    2    1    2    0    0 -0.21186770803E+02 -0.36501353187E+02 -0.15744384610E+02  0.46142315542E+02  0.99999797667E+01 0.  0.
        -12    1    1    2    0    0  0.21186770803E+02  0.36501353187E+02  0.15744384610E+02  0.45045684458E+02  0.00000000000E+00 0.  1.
         11    1    3    3    0    0 -0.84756340581E+00  0.37135610464E+00  0.75737798394E-01  0.92844254456E+00  0.51100000000E-03 0. -1.
        -11    1    3    3    0    0 -0.13638310991E+02 -0.24325952591E+02 -0.81558021814E+01  0.29056369450E+02  0.51100000000E-03 0.  1.
        -12    1    3    3    0    0 -0.67008964059E+01 -0.12546756701E+02 -0.76643202271E+01  0.16157503548E+02  0.00000000000E+00 0.  1.
</event>
<event>
 7    1  0.4119299E-008  0.4614231E+02  0.7816164E-02  0.1320468E+00
        -11   -1    0    0    0    0  0.00000000000E+00  0.00000000000E+00  0.45593999997E+02  0.45594000000E+02  0.51100000000E-03 0.  1.
         11   -1    0    0    0    0 -0.00000000000E+00 -0.00000000000E+00 -0.45593999997E+02  0.45594000000E+02  0.51100000000E-03 0. -1.
    9900012    2    1    2    0    0  0.67487031956E+01 -0.43525425875E+02 -0.94396022344E+01  0.46142314493E+02  0.99999702023E+01 0.  0.
        -12    1    1    2    0    0 -0.67487031956E+01  0.43525425875E+02  0.94396022344E+01  0.45045685507E+02  0.00000000000E+00 0.  1.
         11    1    3    3    0    0 -0.15885303842E+01 -0.75017525564E+01 -0.20893610346E+01  0.79476505958E+01  0.51100000000E-03 0. -1.
        -11    1    3    3    0    0  0.47859673191E+01 -0.25340127865E+02 -0.24111909598E+01  0.25900606277E+02  0.51100000000E-03 0.  1.
        -12    1    3    3    0    0  0.35512662607E+01 -0.10683545453E+02 -0.49390502401E+01  0.12294057621E+02  0.00000000000E+00 0.  1.
</event>
<event>
 7    1  0.4119299E-008  0.4614232E+02  0.7816164E-02  0.1320468E+00
        -11   -1    0    0    0    0  0.00000000000E+00  0.00000000000E+00  0.45593999997E+02  0.45594000000E+02  0.51100000000E-03 0.  1.
         11   -1    0    0    0    0 -0.00000000000E+00 -0.00000000000E+00 -0.45593999997E+02  0.45594000000E+02  0.51100000000E-03 0. -1.
    9900012    2    1    2    0    0 -0.19608281660E+02  0.18504011792E+02 -0.36086428775E+02  0.46142317590E+02  0.99999984373E+01 0.  0.
        -12    1    1    2    0    0  0.19608281660E+02 -0.18504011792E+02  0.36086428775E+02  0.45045682410E+02  0.00000000000E+00 0.  1.
         11    1    3    3    0    0 -0.17975398716E+02  0.13630106596E+02 -0.32222977489E+02  0.39334654484E+02  0.51100000000E-03 0. -1.
        -11    1    3    3    0    0 -0.18395759212E+01  0.20192342217E+01 -0.21045607751E+01  0.34482637267E+01  0.51100000000E-03 0.  1.
         12    1    3    3    0    0  0.20669297781E+00  0.28546709742E+01 -0.17588905107E+01  0.33593993789E+01  0.00000000000E+00 0. -1.
</event>
<event>
 7    1  0.4119299E-008  0.4614232E+02  0.7816164E-02  0.1320468E+00
        -11   -1    0    0    0    0  0.00000000000E+00  0.00000000000E+00  0.45593999997E+02  0.45594000000E+02  0.51100000000E-03 0.  1.
         11   -1    0    0    0    0 -0.00000000000E+00 -0.00000000000E+00 -0.45593999997E+02  0.45594000000E+02  0.51100000000E-03 0. -1.
    9900012    2    1    2    0    0  0.24488162547E+02 -0.12698364546E+02 -0.35611723689E+02  0.46142318396E+02  0.10000005793E+02 0.  0.
        -12    1    1    2    0    0 -0.24488162547E+02  0.12698364546E+02  0.35611723689E+02  0.45045681604E+02  0.00000000000E+00 0.  1.
         11    1    3    3    0    0  0.14785314198E+02 -0.82564411616E+01 -0.24259664512E+02  0.29585565046E+02  0.51100000000E-03 0. -1.
        -11    1    3    3    0    0  0.22321134911E+01 -0.39283280625E+01 -0.35845804427E+01  0.57674352371E+01  0.51100000000E-03 0.  1.
        -12    1    3    3    0    0  0.74707348577E+01 -0.51359532192E+00 -0.77674787339E+01  0.10789318113E+02  0.00000000000E+00 0.  1.
</event>
<event>
 7    1  0.4119299E-008  0.4614232E+02  0.7816164E-02  0.1320468E+00
        -11   -1    0    0    0    0  0.00000000000E+00  0.00000000000E+00  0.45593999997E+02  0.45594000000E+02  0.51100000000E-03 0.  1.
         11   -1    0    0    0    0 -0.00000000000E+00 -0.00000000000E+00 -0.45593999997E+02  0.45594000000E+02  0.51100000000E-03 0. -1.
    9900012    2    1    2    0    0 -0.39232085632E+02  0.78127601881E+01 -0.20710330755E+02  0.46142316913E+02  0.99999922694E+01 0.  0.
        -12    1    1    2    0    0  0.39232085632E+02 -0.78127601881E+01  0.20710330755E+02  0.45045683087E+02  0.00000000000E+00 0.  1.
         11    1    3    3    0    0 -0.13807728614E+02 -0.58168123963E+00 -0.71120934648E+01  0.15542638008E+02  0.51100000000E-03 0.  1.
        -11    1    3    3    0    0 -0.82167244362E+01  0.50829704977E+01 -0.67476492113E+01  0.11784817338E+02  0.51100000000E-03 0. -1.
         12    1    3    3    0    0 -0.17207632582E+02  0.33114709300E+01 -0.68505880790E+01  0.18814861568E+02  0.00000000000E+00 0. -1.
</event>
<event>
 7    1  0.4119299E-008  0.4614232E+02  0.7816164E-02  0.1320468E+00
        -11   -1    0    0    0    0  0.00000000000E+00  0.00000000000E+00  0.45593999997E+02  0.45594000000E+02  0.51100000000E-03 0.  1.
         11   -1    0    0    0    0 -0.00000000000E+00 -0.00000000000E+00 -0.45593999997E+02  0.45594000000E+02  0.51100000000E-03 0. -1.
    9900012    2    1    2    0    0 -0.12675932893E+02  0.35286256928E+02 -0.24966261529E+02  0.46142318549E+02  0.10000007184E+02 0.  0.
        -12    1    1    2    0    0  0.12675932893E+02 -0.35286256928E+02  0.24966261529E+02  0.45045681451E+02  0.00000000000E+00 0.  1.
         11    1    3    3    0    0 -0.36361401589E+01  0.17846733054E+02 -0.12309404458E+02  0.21982921423E+02  0.51100000000E-03 0. -1.
        -11    1    3    3    0    0 -0.83248832614E+01  0.12409269182E+02 -0.68342381480E+01  0.16431690548E+02  0.51100000000E-03 0.  1.
        -12    1    3    3    0    0 -0.71490947221E+00  0.50302546922E+01 -0.58226189231E+01  0.77277065773E+01  0.00000000000E+00 0.  1.
</event>
<event>
 7    1  0.4119299E-008  0.4614232E+02  0.7816164E-02  0.1320468E+00
        -11   -1    0    0    0    0  0.00000000000E+00  0.00000000000E+00  0.45593999997E+02  0.45594000000E+02  0.51100000000E-03 0. -1.
         11   -1    0    0    0    0 -0.00000000000E+00 -0.00000000000E+00 -0.45593999997E+02  0.45594000000E+02  0.51100000000E-03 0.  1.
    9900012    2    1    2    0    0  0.39610868791E+02 -0.72939826860E+01 -0.20171520250E+02  0.46142319419E+02  0.10000015117E+02 0.  0.
        -12    1    1    2    0    0 -0.39610868791E+02  0.72939826860E+01  0.20171520250E+02  0.45045680581E+02  0.00000000000E+00 0.  1.
         11    1    3    3    0    0  0.78182438676E+01 -0.21706473471E+01 -0.71055688908E+01  0.10785441883E+02  0.51100000000E-03 0. -1.
        -11    1    3    3    0    0  0.22956211257E+02 -0.13627475629E+01 -0.11179426742E+02  0.25569988243E+02  0.51100000000E-03 0.  1.
        -12    1    3    3    0    0  0.88364136669E+01 -0.37605877761E+01 -0.18865246168E+01  0.97868892935E+01  0.00000000000E+00 0.  1.
</event>
<event>
 7    1  0.4119299E-008  0.4614231E+02  0.7816164E-02  0.1320468E+00
        -11   -1    0    0    0    0  0.00000000000E+00  0.00000000000E+00  0.45593999997E+02  0.45594000000E+02  0.51100000000E-03 0.  1.
         11   -1    0    0    0    0 -0.00000000000E+00 -0.00000000000E+00 -0.45593999997E+02  0.45594000000E+02  0.51100000000E-03 0. -1.
    9900012    2    1    2    0    0 -0.14628778677E+02  0.63673334672E+01 -0.42125641380E+02  0.46142314715E+02  0.99999722268E+01 0.  0.
        -12    1    1    2    0    0  0.14628778677E+02 -0.63673334672E+01  0.42125641380E+02  0.45045685285E+02  0.00000000000E+00 0.  1.
         11    1    3    3    0    0 -0.61386420622E+01  0.15796829085E+01 -0.12397841311E+02  0.13924252005E+02  0.51100000000E-03 0. -1.
        -11    1    3    3    0    0 -0.79622469048E+01  0.47748139131E+00 -0.21140792168E+02  0.22595540667E+02  0.51100000000E-03 0.  1.
        -12    1    3    3    0    0 -0.52788971013E+00  0.43101691674E+01 -0.85870079008E+01  0.96225220440E+01  0.00000000000E+00 0.  1.
</event>
<event>
 7    1  0.4119299E-008  0.4614232E+02  0.7816164E-02  0.1320468E+00
        -11   -1    0    0    0    0  0.00000000000E+00  0.00000000000E+00  0.45593999997E+02  0.45594000000E+02  0.51100000000E-03 0.  1.
         11   -1    0    0    0    0 -0.00000000000E+00 -0.00000000000E+00 -0.45593999997E+02  0.45594000000E+02  0.51100000000E-03 0. -1.
    9900012    2    1    2    0    0 -0.29851961108E+02  0.15314232070E+02 -0.30057415327E+02  0.46142317609E+02  0.99999986124E+01 0.  0.
        -12    1    1    2    0    0  0.29851961108E+02 -0.15314232070E+02  0.30057415327E+02  0.45045682391E+02  0.00000000000E+00 0.  1.
         11    1    3    3    0    0 -0.14517155765E+02  0.47866139067E+01 -0.95925747917E+01  0.18046522534E+02  0.51100000000E-03 0. -1.
        -11    1    3    3    0    0 -0.33286838672E+01  0.27072475631E+01 -0.81154445571E+01  0.91798565499E+01  0.51100000000E-03 0.  1.
         12    1    3    3    0    0 -0.12006121476E+02  0.78203706006E+01 -0.12349395979E+02  0.18915938525E+02  0.00000000000E+00 0. -1.
</event>
<event>
 7    1  0.4119299E-008  0.4614232E+02  0.7816164E-02  0.1320468E+00
        -11   -1    0    0    0    0  0.00000000000E+00  0.00000000000E+00  0.45593999997E+02  0.45594000000E+02  0.51100000000E-03 0.  1.
         11   -1    0    0    0    0 -0.00000000000E+00 -0.00000000000E+00 -0.45593999997E+02  0.45594000000E+02  0.51100000000E-03 0. -1.
    9900012    2    1    2    0    0 -0.22640285060E+02  0.20467606415E+02 -0.33130170742E+02  0.46142316152E+02  0.99999853274E+01 0.  0.
        -12    1    1    2    0    0  0.22640285060E+02 -0.20467606415E+02  0.33130170742E+02  0.45045683848E+02  0.00000000000E+00 0.  1.
         11    1    3    3    0    0 -0.42755275344E+01  0.25429579578E+01 -0.25976763974E+01  0.56120133463E+01  0.51100000000E-03 0. -1.
        -11    1    3    3    0    0 -0.73557277393E+01  0.29175355256E+01 -0.73420103360E+01  0.10794621816E+02  0.51100000000E-03 0.  1.
         12    1    3    3    0    0 -0.11009029786E+02  0.15007112931E+02 -0.23190484009E+02  0.29735680990E+02  0.00000000000E+00 0. -1.
</event>
<event>
 7    1  0.4119299E-008  0.4614232E+02  0.7816164E-02  0.1320468E+00
        -11   -1    0    0    0    0  0.00000000000E+00  0.00000000000E+00  0.45593999997E+02  0.45594000000E+02  0.51100000000E-03 0.  1.
         11   -1    0    0    0    0 -0.00000000000E+00 -0.00000000000E+00 -0.45593999997E+02  0.45594000000E+02  0.51100000000E-03 0. -1.
    9900012    2    1    2    0    0  0.12833775741E+02 -0.42400753985E+02 -0.81598607793E+01  0.46142322447E+02  0.10000042732E+02 0.  0.
        -12    1    1    2    0    0 -0.12833775741E+02  0.42400753985E+02  0.81598607793E+01  0.45045677553E+02  0.00000000000E+00 0.  1.
         11    1    3    3    0    0  0.57087848564E+01 -0.16859063028E+02 -0.52703947977E+01  0.18563278059E+02  0.51100000000E-03 0. -1.
        -11    1    3    3    0    0  0.51404205214E+01 -0.23131114770E+02 -0.59256758261E+00  0.23702816926E+02  0.51100000000E-03 0.  1.
        -12    1    3    3    0    0  0.19845703631E+01 -0.24105761864E+01 -0.22968983990E+01  0.38762274614E+01  0.00000000000E+00 0.  1.
</event>
<event>
 7    1  0.4119299E-008  0.4614232E+02  0.7816164E-02  0.1320468E+00
        -11   -1    0    0    0    0  0.00000000000E+00  0.00000000000E+00  0.45593999997E+02  0.45594000000E+02  0.51100000000E-03 0. -1.
         11   -1    0    0    0    0 -0.00000000000E+00 -0.00000000000E+00 -0.45593999997E+02  0.45594000000E+02  0.51100000000E-03 0.  1.
    9900012    2    1    2    0    0  0.19380393544E+02  0.39149191269E+02  0.10993392658E+02  0.46142317487E+02  0.99999975017E+01 0.  0.
        -12    1    1    2    0    0 -0.19380393544E+02 -0.39149191269E+02 -0.10993392658E+02  0.45045682513E+02  0.00000000000E+00 0.  1.
         11    1    3    3    0    0  0.23349281468E+01  0.35565309280E+01  0.84094039936E+00  0.43368171173E+01  0.51100000000E-03 0. -1.
        -11    1    3    3    0    0  0.33540931095E+00  0.57793040430E+01  0.41072585218E+01  0.70980580057E+01  0.51100000000E-03 0.  1.
        -12    1    3    3    0    0  0.16710056086E+02  0.29813356298E+02  0.60451937374E+01  0.34707442364E+02  0.00000000000E+00 0.  1.
</event>
<event>
 7    1  0.4119299E-008  0.4614232E+02  0.7816164E-02  0.1320468E+00
        -11   -1    0    0    0    0  0.00000000000E+00  0.00000000000E+00  0.45593999997E+02  0.45594000000E+02  0.51100000000E-03 0.  1.
         11   -1    0    0    0    0 -0.00000000000E+00 -0.00000000000E+00 -0.45593999997E+02  0.45594000000E+02  0.51100000000E-03 0. -1.
    9900012    2    1    2    0    0 -0.23042756945E+01  0.25833016590E+01 -0.44912473126E+02  0.46142319006E+02  0.10000011354E+02 0.  0.
        -12    1    1    2    0    0  0.23042756945E+01 -0.25833016590E+01  0.44912473126E+02  0.45045680994E+02  0.00000000000E+00 0.  1.
         11    1    3    3    0    0 -0.19111123001E+00  0.28538584685E+01 -0.89161341336E+01  0.93636787541E+01  0.51100000000E-03 0. -1.
        -11    1    3    3    0    0  0.17201336381E+01  0.15420683484E+01 -0.22824543839E+02  0.22941155949E+02  0.51100000000E-03 0.  1.
         12    1    3    3    0    0 -0.38332981026E+01 -0.18126251579E+01 -0.13171795153E+02  0.13837484304E+02  0.00000000000E+00 0. -1.
</event>
<event>
 7    1  0.4119299E-008  0.4614232E+02  0.7816164E-02  0.1320468E+00
        -11   -1    0    0    0    0  0.00000000000E+00  0.00000000000E+00  0.45593999997E+02  0.45594000000E+02  0.51100000000E-03 0. -1.
         11   -1    0    0    0    0 -0.00000000000E+00 -0.00000000000E+00 -0.45593999997E+02  0.45594000000E+02  0.51100000000E-03 0.  1.
    9900012    2    1    2    0    0 -0.39341831901E+00  0.94177787983E+00  0.45034117436E+02  0.46142318112E+02  0.10000003200E+02 0.  0.
        -12    1    1    2    0    0  0.39341831901E+00 -0.94177787983E+00 -0.45034117436E+02  0.45045681888E+02  0.00000000000E+00 0.  1.
         11    1    3    3    0    0 -0.20016953898E+01 -0.32614263222E+01  0.28991581766E+02  0.29243041901E+02  0.51100000000E-03 0. -1.
        -11    1    3    3    0    0  0.14857472449E+01  0.51637607396E+00  0.37886493252E+01  0.41021888177E+01  0.51100000000E-03 0.  1.
         12    1    3    3    0    0  0.12252982594E+00  0.36868281280E+01  0.12253886345E+02  0.12797087393E+02  0.00000000000E+00 0. -1.
</event>
<event>
 7    1  0.4119299E-008  0.4614232E+02  0.7816164E-02  0.1320468E+00
        -11   -1    0    0    0    0  0.00000000000E+00  0.00000000000E+00  0.45593999997E+02  0.45594000000E+02  0.51100000000E-03 0.  1.
         11   -1    0    0    0    0 -0.00000000000E+00 -0.00000000000E+00 -0.45593999997E+02  0.45594000000E+02  0.51100000000E-03 0. -1.
    9900012    2    1    2    0    0 -0.27566046742E+02  0.29451935312E+02  0.20045200981E+02  0.46142317532E+02  0.99999979120E+01 0.  0.
        -12    1    1    2    0    0  0.27566046742E+02 -0.29451935312E+02 -0.20045200981E+02  0.45045682468E+02  0.00000000000E+00 0.  1.
         11    1    3    3    0    0 -0.22101825375E+02  0.19447764543E+02  0.14459986142E+02  0.32799351062E+02  0.51100000000E-03 0. -1.
        -11    1    3    3    0    0 -0.30412240950E+01  0.39374601130E+01  0.45242536124E+01  0.67246938330E+01  0.51100000000E-03 0.  1.
         12    1    3    3    0    0 -0.24229972722E+01  0.60667106565E+01  0.10609612263E+01  0.66182726368E+01  0.00000000000E+00 0. -1.
</event>
<event>
 7    1  0.4119299E-008  0.4614232E+02  0.7816164E-02  0.1320468E+00
        -11   -1    0    0    0    0  0.00000000000E+00  0.00000000000E+00  0.45593999997E+02  0.45594000000E+02  0.51100000000E-03 0.  1.
         11   -1    0    0    0    0 -0.00000000000E+00 -0.00000000000E+00 -0.45593999997E+02  0.45594000000E+02  0.51100000000E-03 0. -1.
    9900012    2    1    2    0    0 -0.13758725006E+02 -0.19229406983E+02 -0.38341111640E+02  0.46142318204E+02  0.10000004038E+02 0.  0.
        -12    1    1    2    0    0  0.13758725006E+02  0.19229406983E+02  0.38341111640E+02  0.45045681796E+02  0.00000000000E+00 0.  1.
         11    1    3    3    0    0 -0.63711666014E+01 -0.54976724003E+01 -0.12083657246E+02  0.14725180419E+02  0.51100000000E-03 0. -1.
        -11    1    3    3    0    0 -0.73994943976E+01 -0.12770566195E+02 -0.26580271707E+02  0.30403136722E+02  0.51100000000E-03 0.  1.
        -12    1    3    3    0    0  0.11935993460E-01 -0.96116838747E+00  0.32281731289E+00  0.10140010624E+01  0.00000000000E+00 0.  1.
</event>
<event>
 7    1  0.4119299E-008  0.4614232E+02  0.7816164E-02  0.1320468E+00
        -11   -1    0    0    0    0  0.00000000000E+00  0.00000000000E+00  0.45593999997E+02  0.45594000000E+02  0.51100000000E-03 0. -1.
         11   -1    0    0    0    0 -0.00000000000E+00 -0.00000000000E+00 -0.45593999997E+02  0.45594000000E+02  0.51100000000E-03 0.  1.
    9900012    2    1    2    0    0  0.22606525031E+02  0.34538161929E+02  0.18032578551E+02  0.46142317714E+02  0.99999995692E+01 0.  0.
        -12    1    1    2    0    0 -0.22606525031E+02 -0.34538161929E+02 -0.18032578551E+02  0.45045682286E+02  0.00000000000E+00 0.  1.
         11    1    3    3    0    0  0.41503708621E+01  0.37875503518E+01  0.54531369244E+01  0.78299309408E+01  0.51100000000E-03 0. -1.
        -11    1    3    3    0    0  0.11201807495E+01  0.35218530580E+01  0.76718159743E-01  0.36965037279E+01  0.51100000000E-03 0.  1.
        -12    1    3    3    0    0  0.17335973420E+02  0.27228758519E+02  0.12502723467E+02  0.34615883045E+02  0.00000000000E+00 0.  1.
</event>
<event>
 7    1  0.4119299E-008  0.4614232E+02  0.7816164E-02  0.1320468E+00
        -11   -1    0    0    0    0  0.00000000000E+00  0.00000000000E+00  0.45593999997E+02  0.45594000000E+02  0.51100000000E-03 0.  1.
         11   -1    0    0    0    0 -0.00000000000E+00 -0.00000000000E+00 -0.45593999997E+02  0.45594000000E+02  0.51100000000E-03 0. -1.
    9900012    2    1    2    0    0  0.85302503309E+01  0.33699591212E+01 -0.44102059907E+02  0.46142317818E+02  0.10000000523E+02 0.  0.
        -12    1    1    2    0    0 -0.85302503309E+01 -0.33699591212E+01  0.44102059907E+02  0.45045682182E+02  0.00000000000E+00 0.  1.
         11    1    3    3    0    0  0.15163822937E+01 -0.20530861480E+01 -0.10121769329E+02  0.10438620244E+02  0.51100000000E-03 0. -1.
        -11    1    3    3    0    0  0.60353632074E+00  0.43905407982E+01 -0.15183686478E+02  0.15817251338E+02  0.51100000000E-03 0.  1.
        -12    1    3    3    0    0  0.64103317164E+01  0.10325044709E+01 -0.18796604101E+02  0.19886446236E+02  0.00000000000E+00 0.  1.
</event>
<event>
 7    1  0.4119299E-008  0.4614232E+02  0.7816164E-02  0.1320468E+00
        -11   -1    0    0    0    0  0.00000000000E+00  0.00000000000E+00  0.45593999997E+02  0.45594000000E+02  0.51100000000E-03 0. -1.
         11   -1    0    0    0    0 -0.00000000000E+00 -0.00000000000E+00 -0.45593999997E+02  0.45594000000E+02  0.51100000000E-03 0.  1.
    9900012    2    1    2    0    0 -0.22580165983E+02  0.27280006002E+02  0.27839734330E+02  0.46142318399E+02  0.10000005816E+02 0.  0.
        -12    1    1    2    0    0  0.22580165983E+02 -0.27280006002E+02 -0.27839734330E+02  0.45045681601E+02  0.00000000000E+00 0.  1.
         11    1    3    3    0    0 -0.32749763028E+01  0.42390939532E+01  0.31305682044E+01  0.62045019842E+01  0.51100000000E-03 0. -1.
        -11    1    3    3    0    0 -0.11916444502E+02  0.94404638838E+01  0.80666204973E+01  0.17210298499E+02  0.51100000000E-03 0.  1.
         12    1    3    3    0    0 -0.73887451786E+01  0.13600448165E+02  0.16642545629E+02  0.22727517916E+02  0.00000000000E+00 0. -1.
</event>
<event>
 7    1  0.4119299E-008  0.4614232E+02  0.7816164E-02  0.1320468E+00
        -11   -1    0    0    0    0  0.00000000000E+00  0.00000000000E+00  0.45593999997E+02  0.45594000000E+02  0.51100000000E-03 0. -1.
         11   -1    0    0    0    0 -0.00000000000E+00 -0.00000000000E+00 -0.45593999997E+02  0.45594000000E+02  0.51100000000E-03 0.  1.
    9900012    2    1    2    0    0 -0.77813505807E+01  0.44069699786E+02  0.51405852379E+01  0.46142317936E+02  0.10000001591E+02 0.  0.
        -12    1    1    2    0    0  0.77813505807E+01 -0.44069699786E+02 -0.51405852379E+01  0.45045682064E+02  0.00000000000E+00 0.  1.
         11    1    3    3    0    0 -0.58830544508E+01  0.20827074889E+02  0.32846396445E+01  0.21889866056E+02  0.51100000000E-03 0. -1.
        -11    1    3    3    0    0 -0.24567645414E+01  0.55833421963E+01 -0.14686702175E+01  0.62742644638E+01  0.51100000000E-03 0.  1.
        -12    1    3    3    0    0  0.55846841151E+00  0.17659282700E+02  0.33246158109E+01  0.17978187415E+02  0.00000000000E+00 0.  1.
</event>
<event>
 7    1  0.4119299E-008  0.4614232E+02  0.7816164E-02  0.1320468E+00
        -11   -1    0    0    0    0  0.00000000000E+00  0.00000000000E+00  0.45593999997E+02  0.45594000000E+02  0.51100000000E-03 0.  1.
         11   -1    0    0    0    0 -0.00000000000E+00 -0.00000000000E+00 -0.45593999997E+02  0.45594000000E+02  0.51100000000E-03 0. -1.
    9900012    2    1    2    0    0 -0.21890520554E+02  0.14714240282E+02 -0.36515884168E+02  0.46142317035E+02  0.99999933806E+01 0.  0.
        -12    1    1    2    0    0  0.21890520554E+02 -0.14714240282E+02  0.36515884168E+02  0.45045682965E+02  0.00000000000E+00 0.  1.
         11    1    3    3    0    0 -0.10385830143E+02  0.98012196526E+01 -0.21661474703E+02  0.25945112469E+02  0.51100000000E-03 0. -1.
        -11    1    3    3    0    0 -0.51209652332E+01  0.44352116759E+01 -0.48956070948E+01  0.83583704522E+01  0.51100000000E-03 0.  1.
        -12    1    3    3    0    0 -0.63837251774E+01  0.47780895357E+00 -0.99588023698E+01  0.11838834114E+02  0.00000000000E+00 0.  1.
</event>
<event>
 7    1  0.4119299E-008  0.4614232E+02  0.7816164E-02  0.1320468E+00
        -11   -1    0    0    0    0  0.00000000000E+00  0.00000000000E+00  0.45593999997E+02  0.45594000000E+02  0.51100000000E-03 0.  1.
         11   -1    0    0    0    0 -0.00000000000E+00 -0.00000000000E+00 -0.45593999997E+02  0.45594000000E+02  0.51100000000E-03 0. -1.
    9900012    2    1    2    0    0 -0.40732640139E+02  0.11460054853E+02  0.15447745289E+02  0.46142315806E+02  0.99999821745E+01 0.  0.
        -12    1    1    2    0    0  0.40732640139E+02 -0.11460054853E+02 -0.15447745289E+02  0.45045684194E+02  0.00000000000E+00 0.  1.
         11    1    3    3    0    0 -0.12189759244E+02  0.30819313513E+01  0.82527610283E+01  0.15039833647E+02  0.51100000000E-03 0. -1.
        -11    1    3    3    0    0 -0.23882159375E+02  0.88808522987E+01  0.69382740345E+01  0.26407701922E+02  0.51100000000E-03 0.  1.
        -12    1    3    3    0    0 -0.46607215211E+01 -0.50272879657E+00  0.25671022580E+00  0.46947802377E+01  0.00000000000E+00 0.  1.
</event>
<event>
 7    1  0.4119299E-008  0.4614232E+02  0.7816164E-02  0.1320468E+00
        -11   -1    0    0    0    0  0.00000000000E+00  0.00000000000E+00  0.45593999997E+02  0.45594000000E+02  0.51100000000E-03 0.  1.
         11   -1    0    0    0    0 -0.00000000000E+00 -0.00000000000E+00 -0.45593999997E+02  0.45594000000E+02  0.51100000000E-03 0. -1.
    9900012    2    1    2    0    0 -0.42987863579E+02  0.13126750620E+02 -0.29741054957E+01  0.46142319847E+02  0.10000019022E+02 0.  0.
        -12    1    1    2    0    0  0.42987863579E+02 -0.13126750620E+02  0.29741054957E+01  0.45045680153E+02  0.00000000000E+00 0.  1.
         11    1    3    3    0    0 -0.20378649254E+01 -0.32584721446E+00 -0.11521522877E+01  0.23635830886E+01  0.51100000000E-03 0. -1.
        -11    1    3    3    0    0 -0.85688436519E+01 -0.10340421571E+00 -0.13230404515E+01  0.86709982274E+01  0.51100000000E-03 0.  1.
         12    1    3    3    0    0 -0.32381155002E+02  0.13556002050E+02 -0.49891275654E+00  0.35107738531E+02  0.00000000000E+00 0. -1.
</event>
<event>
 7    1  0.4119299E-008  0.4614232E+02  0.7816164E-02  0.1320468E+00
        -11   -1    0    0    0    0  0.00000000000E+00  0.00000000000E+00  0.45593999997E+02  0.45594000000E+02  0.51100000000E-03 0.  1.
         11   -1    0    0    0    0 -0.00000000000E+00 -0.00000000000E+00 -0.45593999997E+02  0.45594000000E+02  0.51100000000E-03 0. -1.
    9900012    2    1    2    0    0 -0.19405031497E+02 -0.40551993663E+02 -0.28449901406E+01  0.46142318672E+02  0.10000008305E+02 0.  0.
        -12    1    1    2    0    0  0.19405031497E+02  0.40551993663E+02  0.28449901406E+01  0.45045681328E+02  0.00000000000E+00 0.  1.
         11    1    3    3    0    0  0.26193882751E+00 -0.14113489988E+01  0.10738431818E+00  0.14394615656E+01  0.51100000000E-03 0.  1.
        -11    1    3    3    0    0 -0.26852657723E+01 -0.97904691487E+01  0.22468666303E+01  0.10397708802E+02  0.51100000000E-03 0. -1.
         12    1    3    3    0    0 -0.16981704552E+02 -0.29350175515E+02 -0.51992410891E+01  0.34305148304E+02  0.00000000000E+00 0. -1.
</event>
<event>
 7    1  0.4119299E-008  0.4614231E+02  0.7816164E-02  0.1320468E+00
        -11   -1    0    0    0    0  0.00000000000E+00  0.00000000000E+00  0.45593999997E+02  0.45594000000E+02  0.51100000000E-03 0. -1.
         11   -1    0    0    0    0 -0.00000000000E+00 -0.00000000000E+00 -0.45593999997E+02  0.45594000000E+02  0.51100000000E-03 0.  1.
    9900012    2    1    2    0    0 -0.22590920565E+02  0.81069569785E+01  0.38118778869E+02  0.46142314903E+02  0.99999739369E+01 0.  0.
        -12    1    1    2    0    0  0.22590920565E+02 -0.81069569785E+01 -0.38118778869E+02  0.45045685097E+02  0.00000000000E+00 0.  1.
         11    1    3    3    0    0 -0.77161268902E+01  0.36974957108E+01  0.21200071167E+02  0.22861607697E+02  0.51100000000E-03 0.  1.
        -11    1    3    3    0    0 -0.93865218825E+01  0.35197661702E+01  0.13268049940E+02  0.16629392545E+02  0.51100000000E-03 0. -1.
        -12    1    3    3    0    0 -0.54882717923E+01  0.88969509741E+00  0.36506577614E+01  0.66513146613E+01  0.00000000000E+00 0.  1.
</event>
<event>
 7    1  0.4119299E-008  0.4614230E+02  0.7816164E-02  0.1320468E+00
        -11   -1    0    0    0    0  0.00000000000E+00  0.00000000000E+00  0.45593999997E+02  0.45594000000E+02  0.51100000000E-03 0.  1.
         11   -1    0    0    0    0 -0.00000000000E+00 -0.00000000000E+00 -0.45593999997E+02  0.45594000000E+02  0.51100000000E-03 0. -1.
    9900012    2    1    2    0    0  0.37806311954E+02  0.15868276024E+02 -0.18654637950E+02  0.46142301819E+02  0.99998546269E+01 0.  0.
        -12    1    1    2    0    0 -0.37806311954E+02 -0.15868276024E+02  0.18654637950E+02  0.45045698181E+02  0.00000000000E+00 0.  1.
         11    1    3    3    0    0  0.94601648146E+01  0.59961398556E+01 -0.94334225682E+01  0.14643697385E+02  0.51100000000E-03 0.  1.
        -11    1    3    3    0    0  0.77118534245E+01  0.37244862756E+01 -0.20615509962E+01  0.88087725609E+01  0.51100000000E-03 0. -1.
        -12    1    3    3    0    0  0.20634293715E+02  0.61476498925E+01 -0.71596643861E+01  0.22689831873E+02  0.00000000000E+00 0.  1.
</event>
<event>
 7    1  0.4119299E-008  0.4614233E+02  0.7816164E-02  0.1320468E+00
        -11   -1    0    0    0    0  0.00000000000E+00  0.00000000000E+00  0.45593999997E+02  0.45594000000E+02  0.51100000000E-03 0.  1.
         11   -1    0    0    0    0 -0.00000000000E+00 -0.00000000000E+00 -0.45593999997E+02  0.45594000000E+02  0.51100000000E-03 0. -1.
    9900012    2    1    2    0    0 -0.10160442631E+02  0.21053033561E+02 -0.38505160465E+02  0.46142332073E+02  0.10000130504E+02 0.  0.
        -12    1    1    2    0    0  0.10160442631E+02 -0.21053033561E+02  0.38505160465E+02  0.45045667927E+02  0.00000000000E+00 0.  1.
         11    1    3    3    0    0 -0.58260545999E+01  0.10402970467E+02 -0.17377681874E+02  0.21074831774E+02  0.51100000000E-03 0. -1.
        -11    1    3    3    0    0  0.71557051770E+00  0.49877766047E+01 -0.13033079000E+02  0.13973228156E+02  0.51100000000E-03 0.  1.
        -12    1    3    3    0    0 -0.50499585491E+01  0.56622864884E+01 -0.80943995919E+01  0.11094272143E+02  0.00000000000E+00 0.  1.
</event>
<event>
 7    1  0.4119299E-008  0.4614231E+02  0.7816164E-02  0.1320468E+00
        -11   -1    0    0    0    0  0.00000000000E+00  0.00000000000E+00  0.45593999997E+02  0.45594000000E+02  0.51100000000E-03 0.  1.
         11   -1    0    0    0    0 -0.00000000000E+00 -0.00000000000E+00 -0.45593999997E+02  0.45594000000E+02  0.51100000000E-03 0. -1.
    9900012    2    1    2    0    0 -0.27415530841E+02  0.22943761856E+02 -0.27405964890E+02  0.46142307076E+02  0.99999025677E+01 0.  0.
        -12    1    1    2    0    0  0.27415530841E+02 -0.22943761856E+02  0.27405964890E+02  0.45045692924E+02  0.00000000000E+00 0.  1.
         11    1    3    3    0    0 -0.34747257380E+01  0.42078931568E+01 -0.43496339967E+01  0.69784955355E+01  0.51100000000E-03 0. -1.
        -11    1    3    3    0    0 -0.11942247368E+02  0.14636216084E+02 -0.15213965413E+02  0.24254913673E+02  0.51100000000E-03 0.  1.
        -12    1    3    3    0    0 -0.11998557736E+02  0.40996526156E+01 -0.78423654800E+01  0.14908897868E+02  0.00000000000E+00 0.  1.
</event>
<event>
 7    1  0.4119299E-008  0.4614232E+02  0.7816164E-02  0.1320468E+00
        -11   -1    0    0    0    0  0.00000000000E+00  0.00000000000E+00  0.45593999997E+02  0.45594000000E+02  0.51100000000E-03 0.  1.
         11   -1    0    0    0    0 -0.00000000000E+00 -0.00000000000E+00 -0.45593999997E+02  0.45594000000E+02  0.51100000000E-03 0. -1.
    9900012    2    1    2    0    0  0.38648321638E+02 -0.22933426865E+02 -0.30787468328E+01  0.46142317462E+02  0.99999972743E+01 0.  0.
        -12    1    1    2    0    0 -0.38648321638E+02  0.22933426865E+02  0.30787468328E+01  0.45045682538E+02  0.00000000000E+00 0.  1.
         11    1    3    3    0    0  0.18808164985E+02 -0.14530259342E+02  0.11280680979E+01  0.23793865692E+02  0.51100000000E-03 0. -1.
        -11    1    3    3    0    0  0.44902210024E+00 -0.11681351108E+01 -0.20246908725E+00  0.12677359646E+01  0.51100000000E-03 0.  1.
        -12    1    3    3    0    0  0.19391134553E+02 -0.72350324121E+01 -0.40043458435E+01  0.21080715806E+02  0.00000000000E+00 0.  1.
</event>
<event>
 7    1  0.4119299E-008  0.4614232E+02  0.7816164E-02  0.1320468E+00
        -11   -1    0    0    0    0  0.00000000000E+00  0.00000000000E+00  0.45593999997E+02  0.45594000000E+02  0.51100000000E-03 0.  1.
         11   -1    0    0    0    0 -0.00000000000E+00 -0.00000000000E+00 -0.45593999997E+02  0.45594000000E+02  0.51100000000E-03 0. -1.
    9900012    2    1    2    0    0  0.14285362189E+02  0.37330187541E+02 -0.20772552702E+02  0.46142318515E+02  0.10000006876E+02 0.  0.
        -12    1    1    2    0    0 -0.14285362189E+02 -0.37330187541E+02  0.20772552702E+02  0.45045681485E+02  0.00000000000E+00 0.  1.
         11    1    3    3    0    0  0.24632135057E+01  0.66351520836E+01 -0.55449388419E+01  0.89910517165E+01  0.51100000000E-03 0. -1.
        -11    1    3    3    0    0  0.12584149834E+02  0.26918332478E+02 -0.11724710898E+02  0.31944112077E+02  0.51100000000E-03 0.  1.
        -12    1    3    3    0    0 -0.76200115048E+00  0.37767029788E+01 -0.35029029615E+01  0.52071547222E+01  0.00000000000E+00 0.  1.
</event>
<event>
 7    1  0.4119299E-008  0.4614232E+02  0.7816164E-02  0.1320468E+00
        -11   -1    0    0    0    0  0.00000000000E+00  0.00000000000E+00  0.45593999997E+02  0.45594000000E+02  0.51100000000E-03 0.  1.
         11   -1    0    0    0    0 -0.00000000000E+00 -0.00000000000E+00 -0.45593999997E+02  0.45594000000E+02  0.51100000000E-03 0. -1.
    9900012    2    1    2    0    0 -0.44565708272E+02  0.61054392536E+01 -0.23947490302E+01  0.46142316908E+02  0.99999922231E+01 0.  0.
        -12    1    1    2    0    0  0.44565708272E+02 -0.61054392536E+01  0.23947490302E+01  0.45045683092E+02  0.00000000000E+00 0.  1.
         11    1    3    3    0    0 -0.10877658868E+02  0.56793464030E+00  0.11366159765E+01  0.10951616700E+02  0.51100000000E-03 0. -1.
        -11    1    3    3    0    0 -0.24622277062E+02  0.74258672871E+01 -0.32891716567E+01  0.25927180393E+02  0.51100000000E-03 0.  1.
        -12    1    3    3    0    0 -0.90657723421E+01 -0.18883626738E+01 -0.24219334992E+00  0.92635198152E+01  0.00000000000E+00 0.  1.
</event>
<event>
 7    1  0.4119299E-008  0.4614232E+02  0.7816164E-02  0.1320468E+00
        -11   -1    0    0    0    0  0.00000000000E+00  0.00000000000E+00  0.45593999997E+02  0.45594000000E+02  0.51100000000E-03 0.  1.
         11   -1    0    0    0    0 -0.00000000000E+00 -0.00000000000E+00 -0.45593999997E+02  0.45594000000E+02  0.51100000000E-03 0. -1.
    9900012    2    1    2    0    0 -0.14672978909E+02  0.62265953763E+01 -0.42131302465E+02  0.46142318216E+02  0.10000004145E+02 0.  0.
        -12    1    1    2    0    0  0.14672978909E+02 -0.62265953763E+01  0.42131302465E+02  0.45045681784E+02  0.00000000000E+00 0.  1.
         11    1    3    3    0    0 -0.99208963212E+01  0.51089222388E+01 -0.25744940173E+02  0.28059351650E+02  0.51100000000E-03 0. -1.
        -11    1    3    3    0    0 -0.47977042612E+01  0.20510732808E+01 -0.74362563262E+01  0.90842047639E+01  0.51100000000E-03 0.  1.
        -12    1    3    3    0    0  0.45621673741E-01 -0.93340014336E+00 -0.89501059659E+01  0.89987618018E+01  0.00000000000E+00 0.  1.
</event>
<event>
 7    1  0.4119299E-008  0.4614232E+02  0.7816164E-02  0.1320468E+00
        -11   -1    0    0    0    0  0.00000000000E+00  0.00000000000E+00  0.45593999997E+02  0.45594000000E+02  0.51100000000E-03 0.  1.
         11   -1    0    0    0    0 -0.00000000000E+00 -0.00000000000E+00 -0.45593999997E+02  0.45594000000E+02  0.51100000000E-03 0. -1.
    9900012    2    1    2    0    0 -0.31137786366E+02  0.21677545866E+02  0.24282417039E+02  0.46142317501E+02  0.99999976284E+01 0.  0.
        -12    1    1    2    0    0  0.31137786366E+02 -0.21677545866E+02 -0.24282417039E+02  0.45045682499E+02  0.00000000000E+00 0.  1.
         11    1    3    3    0    0 -0.48736879350E+01  0.18058321388E+01  0.49148230300E+01  0.71532754371E+01  0.51100000000E-03 0. -1.
        -11    1    3    3    0    0 -0.90336227112E+01  0.11227897781E+02  0.64794332876E+01  0.15800477330E+02  0.51100000000E-03 0.  1.
         12    1    3    3    0    0 -0.17230475719E+02  0.86438159465E+01  0.12888160721E+02  0.23188564734E+02  0.00000000000E+00 0. -1.
</event>
<event>
 7    1  0.4119299E-008  0.4614232E+02  0.7816164E-02  0.1320468E+00
        -11   -1    0    0    0    0  0.00000000000E+00  0.00000000000E+00  0.45593999997E+02  0.45594000000E+02  0.51100000000E-03 0.  1.
         11   -1    0    0    0    0 -0.00000000000E+00 -0.00000000000E+00 -0.45593999997E+02  0.45594000000E+02  0.51100000000E-03 0. -1.
    9900012    2    1    2    0    0  0.41897687892E+02 -0.12738613719E+02  0.10555794497E+02  0.46142319545E+02  0.10000016265E+02 0.  0.
        -12    1    1    2    0    0 -0.41897687892E+02  0.12738613719E+02 -0.10555794497E+02  0.45045680455E+02  0.00000000000E+00 0.  1.
         11    1    3    3    0    0  0.21158272365E+02 -0.42331332428E+01  0.54009155774E+01  0.22243241577E+02  0.51100000000E-03 0. -1.
        -11    1    3    3    0    0  0.16219330027E+02 -0.43924021771E+01  0.57468762383E+01  0.17759123013E+02  0.51100000000E-03 0.  1.
         12    1    3    3    0    0  0.45200854995E+01 -0.41130782991E+01 -0.59199731844E+00  0.61399549544E+01  0.00000000000E+00 0. -1.
</event>
<event>
 7    1  0.4119299E-008  0.4614232E+02  0.7816164E-02  0.1320468E+00
        -11   -1    0    0    0    0  0.00000000000E+00  0.00000000000E+00  0.45593999997E+02  0.45594000000E+02  0.51100000000E-03 0.  1.
         11   -1    0    0    0    0 -0.00000000000E+00 -0.00000000000E+00 -0.45593999997E+02  0.45594000000E+02  0.51100000000E-03 0. -1.
    9900012    2    1    2    0    0  0.59448645576E-02 -0.42419584304E+02  0.15155601285E+02  0.46142318540E+02  0.10000007105E+02 0.  0.
        -12    1    1    2    0    0 -0.59448645576E-02  0.42419584304E+02 -0.15155601285E+02  0.45045681460E+02  0.00000000000E+00 0.  1.
         11    1    3    3    0    0  0.16575047664E+01 -0.25359646049E+02  0.11885307631E+02  0.28055650189E+02  0.51100000000E-03 0. -1.
        -11    1    3    3    0    0  0.60103251435E+00 -0.21252676779E-01  0.12634535789E+00  0.61453654908E+00  0.51100000000E-03 0.  1.
         12    1    3    3    0    0 -0.22525924162E+01 -0.17038685578E+02  0.31439482961E+01  0.17472131802E+02  0.00000000000E+00 0. -1.
</event>
<event>
 7    1  0.4119299E-008  0.4614232E+02  0.7816164E-02  0.1320468E+00
        -11   -1    0    0    0    0  0.00000000000E+00  0.00000000000E+00  0.45593999997E+02  0.45594000000E+02  0.51100000000E-03 0.  1.
         11   -1    0    0    0    0 -0.00000000000E+00 -0.00000000000E+00 -0.45593999997E+02  0.45594000000E+02  0.51100000000E-03 0. -1.
    9900012    2    1    2    0    0 -0.18442352413E+02  0.68948835190E+01 -0.40514857052E+02  0.46142318484E+02  0.10000006594E+02 0.  0.
        -12    1    1    2    0    0  0.18442352413E+02 -0.68948835190E+01  0.40514857052E+02  0.45045681516E+02  0.00000000000E+00 0.  1.
         11    1    3    3    0    0 -0.14846300739E+02  0.92270060451E+01 -0.34293251226E+02  0.38491263503E+02  0.51100000000E-03 0. -1.
        -11    1    3    3    0    0 -0.16685632531E+01 -0.86571088807E+00 -0.17631416093E+01  0.25772518827E+01  0.51100000000E-03 0.  1.
         12    1    3    3    0    0 -0.19274884205E+01 -0.14664116380E+01 -0.44584642170E+01  0.50738030980E+01  0.00000000000E+00 0. -1.
</event>
<event>
 7    1  0.4119299E-008  0.4614232E+02  0.7816164E-02  0.1320468E+00
        -11   -1    0    0    0    0  0.00000000000E+00  0.00000000000E+00  0.45593999997E+02  0.45594000000E+02  0.51100000000E-03 0. -1.
         11   -1    0    0    0    0 -0.00000000000E+00 -0.00000000000E+00 -0.45593999997E+02  0.45594000000E+02  0.51100000000E-03 0.  1.
    9900012    2    1    2    0    0  0.26328033855E+02 -0.10803473629E+02  0.34917519190E+02  0.46142317016E+02  0.99999932062E+01 0.  0.
        -12    1    1    2    0    0 -0.26328033855E+02  0.10803473629E+02 -0.34917519190E+02  0.45045682984E+02  0.00000000000E+00 0.  1.
         11    1    3    3    0    0  0.70251091586E+01 -0.38284013770E+01  0.76856412229E+01  0.11094047821E+02  0.51100000000E-03 0. -1.
        -11    1    3    3    0    0  0.58753392930E+01 -0.24207906673E+01  0.31264587493E+01  0.70819901042E+01  0.51100000000E-03 0.  1.
         12    1    3    3    0    0  0.13427585403E+02 -0.45542815850E+01  0.24105419218E+02  0.27966279091E+02  0.00000000000E+00 0. -1.
</event>
<event>
 7    1  0.4119299E-008  0.4614232E+02  0.7816164E-02  0.1320468E+00
        -11   -1    0    0    0    0  0.00000000000E+00  0.00000000000E+00  0.45593999997E+02  0.45594000000E+02  0.51100000000E-03 0.  1.
         11   -1    0    0    0    0 -0.00000000000E+00 -0.00000000000E+00 -0.45593999997E+02  0.45594000000E+02  0.51100000000E-03 0. -1.
    9900012    2    1    2    0    0  0.10795079275E+02  0.10854928612E+02 -0.42364493089E+02  0.46142317782E+02  0.10000000192E+02 0.  0.
        -12    1    1    2    0    0 -0.10795079275E+02 -0.10854928612E+02  0.42364493089E+02  0.45045682218E+02  0.00000000000E+00 0.  1.
         11    1    3    3    0    0  0.34750843194E+01  0.26068135233E+01 -0.43108634996E+01  0.61200679854E+01  0.51100000000E-03 0.  1.
        -11    1    3    3    0    0  0.35105701996E+01  0.34289809608E+01 -0.83092837339E+01  0.96501922254E+01  0.51100000000E-03 0. -1.
         12    1    3    3    0    0  0.38094247561E+01  0.48191341283E+01 -0.29744345856E+02  0.30372057571E+02  0.00000000000E+00 0. -1.
</event>
<event>
 7    1  0.4119299E-008  0.4614232E+02  0.7816164E-02  0.1320468E+00
        -11   -1    0    0    0    0  0.00000000000E+00  0.00000000000E+00  0.45593999997E+02  0.45594000000E+02  0.51100000000E-03 0.  1.
         11   -1    0    0    0    0 -0.00000000000E+00 -0.00000000000E+00 -0.45593999997E+02  0.45594000000E+02  0.51100000000E-03 0. -1.
    9900012    2    1    2    0    0  0.27162842357E+02  0.16033601306E+02 -0.32159246460E+02  0.46142317536E+02  0.99999979442E+01 0.  0.
        -12    1    1    2    0    0 -0.27162842357E+02 -0.16033601306E+02  0.32159246460E+02  0.45045682464E+02  0.00000000000E+00 0.  1.
         11    1    3    3    0    0  0.12373772556E+02  0.29381527642E+01 -0.12325289911E+02  0.17710329206E+02  0.51100000000E-03 0. -1.
        -11    1    3    3    0    0  0.13690100759E+02  0.10897020893E+02 -0.19016852766E+02  0.25841915807E+02  0.51100000000E-03 0.  1.
         12    1    3    3    0    0  0.10989690415E+01  0.21984276487E+01 -0.81710378274E+00  0.25900725226E+01  0.00000000000E+00 0. -1.
</event>
<event>
 7    1  0.4119299E-008  0.4614232E+02  0.7816164E-02  0.1320468E+00
        -11   -1    0    0    0    0  0.00000000000E+00  0.00000000000E+00  0.45593999997E+02  0.45594000000E+02  0.51100000000E-03 0.  1.
         11   -1    0    0    0    0 -0.00000000000E+00 -0.00000000000E+00 -0.45593999997E+02  0.45594000000E+02  0.51100000000E-03 0. -1.
    9900012    2    1    2    0    0 -0.28697568522E+02 -0.31377294475E+02 -0.14867027316E+02  0.46142317090E+02  0.99999938825E+01 0.  0.
        -12    1    1    2    0    0  0.28697568522E+02  0.31377294475E+02  0.14867027316E+02  0.45045682910E+02  0.00000000000E+00 0.  1.
         11    1    3    3    0    0 -0.12718240455E+02 -0.16483990855E+02 -0.59092013107E+01  0.21642417960E+02  0.51100000000E-03 0. -1.
        -11    1    3    3    0    0 -0.38852732253E+01 -0.38366830473E+01  0.65894162894E+00  0.54999717429E+01  0.51100000000E-03 0.  1.
         12    1    3    3    0    0 -0.12094054842E+02 -0.11056620573E+02 -0.96167676344E+01  0.18999927388E+02  0.00000000000E+00 0. -1.
</event>
<event>
 7    1  0.4119299E-008  0.4614232E+02  0.7816164E-02  0.1320468E+00
        -11   -1    0    0    0    0  0.00000000000E+00  0.00000000000E+00  0.45593999997E+02  0.45594000000E+02  0.51100000000E-03 0.  1.
         11   -1    0    0    0    0 -0.00000000000E+00 -0.00000000000E+00 -0.45593999997E+02  0.45594000000E+02  0.51100000000E-03 0. -1.
    9900012    2    1    2    0    0  0.34241160822E+02  0.19900186727E+01 -0.29200961937E+02  0.46142318223E+02  0.10000004211E+02 0.  0.
        -12    1    1    2    0    0 -0.34241160822E+02 -0.19900186727E+01  0.29200961937E+02  0.45045681777E+02  0.00000000000E+00 0.  1.
         11    1    3    3    0    0  0.17275996008E+02  0.48426518940E+01 -0.15360309113E+02  0.23618857122E+02  0.51100000000E-03 0. -1.
        -11    1    3    3    0    0  0.78192963704E+01 -0.61750865359E+00 -0.89954237619E+01  0.11934838147E+02  0.51100000000E-03 0.  1.
        -12    1    3    3    0    0  0.91458684428E+01 -0.22351245678E+01 -0.48452290618E+01  0.10588622954E+02  0.00000000000E+00 0.  1.
</event>
<event>
 7    1  0.4119299E-008  0.4614232E+02  0.7816164E-02  0.1320468E+00
        -11   -1    0    0    0    0  0.00000000000E+00  0.00000000000E+00  0.45593999997E+02  0.45594000000E+02  0.51100000000E-03 0. -1.
         11   -1    0    0    0    0 -0.00000000000E+00 -0.00000000000E+00 -0.45593999997E+02  0.45594000000E+02  0.51100000000E-03 0.  1.
    9900012    2    1    2    0    0  0.34738301010E+02 -0.23429758423E+02  0.16535124262E+02  0.46142317952E+02  0.10000001742E+02 0.  0.
        -12    1    1    2    0    0 -0.34738301010E+02  0.23429758423E+02 -0.16535124262E+02  0.45045682048E+02  0.00000000000E+00 0.  1.
         11    1    3    3    0    0  0.47937600200E+01 -0.24457078060E+01  0.10809934958E+01  0.54890954629E+01  0.51100000000E-03 0. -1.
        -11    1    3    3    0    0  0.26937092787E+02 -0.16211051014E+02  0.10502097213E+02  0.33146631637E+02  0.51100000000E-03 0.  1.
         12    1    3    3    0    0  0.30074482030E+01 -0.47729996033E+01  0.49520335531E+01  0.75065908518E+01  0.00000000000E+00 0. -1.
</event>
<event>
 7    1  0.4119299E-008  0.4614232E+02  0.7816164E-02  0.1320468E+00
        -11   -1    0    0    0    0  0.00000000000E+00  0.00000000000E+00  0.45593999997E+02  0.45594000000E+02  0.51100000000E-03 0.  1.
         11   -1    0    0    0    0 -0.00000000000E+00 -0.00000000000E+00 -0.45593999997E+02  0.45594000000E+02  0.51100000000E-03 0. -1.
    9900012    2    1    2    0    0  0.96072911510E+01  0.81739611272E+01 -0.43243495524E+02  0.46142316645E+02  0.99999898222E+01 0.  0.
        -12    1    1    2    0    0 -0.96072911510E+01 -0.81739611272E+01  0.43243495524E+02  0.45045683355E+02  0.00000000000E+00 0.  1.
         11    1    3    3    0    0  0.68575921739E+01  0.56947678040E+01 -0.25171708801E+02  0.26703405681E+02  0.51100000000E-03 0. -1.
        -11    1    3    3    0    0  0.25685873498E+01  0.84412426354E+00 -0.22099635522E+01  0.34920088644E+01  0.51100000000E-03 0.  1.
         12    1    3    3    0    0  0.18111162731E+00  0.16350690596E+01 -0.15861823171E+02  0.15946902099E+02  0.00000000000E+00 0. -1.
</event>
<event>
 7    1  0.4119299E-008  0.4614232E+02  0.7816164E-02  0.1320468E+00
        -11   -1    0    0    0    0  0.00000000000E+00  0.00000000000E+00  0.45593999997E+02  0.45594000000E+02  0.51100000000E-03 0.  1.
         11   -1    0    0    0    0 -0.00000000000E+00 -0.00000000000E+00 -0.45593999997E+02  0.45594000000E+02  0.51100000000E-03 0. -1.
    9900012    2    1    2    0    0  0.10348041995E+02 -0.23995112327E+02 -0.36691497563E+02  0.46142318940E+02  0.10000010754E+02 0.  0.
        -12    1    1    2    0    0 -0.10348041995E+02  0.23995112327E+02  0.36691497563E+02  0.45045681060E+02  0.00000000000E+00 0.  1.
         11    1    3    3    0    0  0.49931303612E+01 -0.38310174200E+01 -0.80769661126E+01  0.10239405604E+02  0.51100000000E-03 0.  1.
        -11    1    3    3    0    0  0.29852793295E+01 -0.79104343389E+01 -0.16339123310E+02  0.18397114309E+02  0.51100000000E-03 0. -1.
        -12    1    3    3    0    0  0.23696323041E+01 -0.12253660568E+02 -0.12275408141E+02  0.17505799028E+02  0.00000000000E+00 0.  1.
</event>
<event>
 7    1  0.4119299E-008  0.4614232E+02  0.7816164E-02  0.1320468E+00
        -11   -1    0    0    0    0  0.00000000000E+00  0.00000000000E+00  0.45593999997E+02  0.45594000000E+02  0.51100000000E-03 0.  1.
         11   -1    0    0    0    0 -0.00000000000E+00 -0.00000000000E+00 -0.45593999997E+02  0.45594000000E+02  0.51100000000E-03 0. -1.
    9900012    2    1    2    0    0 -0.43387380857E+02  0.11122039547E+02 -0.47904973820E+01  0.46142318226E+02  0.10000004236E+02 0.  0.
        -12    1    1    2    0    0  0.43387380857E+02 -0.11122039547E+02  0.47904973820E+01  0.45045681774E+02  0.00000000000E+00 0.  1.
         11    1    3    3    0    0 -0.13565884606E+02  0.56391546240E+01 -0.37275679587E+01  0.15156782414E+02  0.51100000000E-03 0. -1.
        -11    1    3    3    0    0 -0.22054096163E+02  0.36794045707E+01  0.19894812641E+01  0.22447253986E+02  0.51100000000E-03 0.  1.
        -12    1    3    3    0    0 -0.77674000889E+01  0.18034803525E+01 -0.30524106875E+01  0.85382818253E+01  0.00000000000E+00 0.  1.
</event>
<event>
 7    1  0.4119299E-008  0.4614232E+02  0.7816164E-02  0.1320468E+00
        -11   -1    0    0    0    0  0.00000000000E+00  0.00000000000E+00  0.45593999997E+02  0.45594000000E+02  0.51100000000E-03 0. -1.
         11   -1    0    0    0    0 -0.00000000000E+00 -0.00000000000E+00 -0.45593999997E+02  0.45594000000E+02  0.51100000000E-03 0.  1.
    9900012    2    1    2    0    0  0.13522560007E+02  0.30228926075E+02  0.30536307868E+02  0.46142315423E+02  0.99999786784E+01 0.  0.
        -12    1    1    2    0    0 -0.13522560007E+02 -0.30228926075E+02 -0.30536307868E+02  0.45045684577E+02  0.00000000000E+00 0.  1.
         11    1    3    3    0    0  0.10243529196E+01 -0.12427696097E+00  0.40527126549E+00  0.11085976396E+01  0.51100000000E-03 0. -1.
        -11    1    3    3    0    0  0.64072807599E+01  0.77958606481E+01  0.96575592976E+01  0.13967717846E+02  0.51100000000E-03 0.  1.
         12    1    3    3    0    0  0.60909263281E+01  0.22557342388E+02  0.20473477305E+02  0.31065999937E+02  0.00000000000E+00 0. -1.
</event>
<event>
 7    1  0.4119299E-008  0.4614232E+02  0.7816164E-02  0.1320468E+00
        -11   -1    0    0    0    0  0.00000000000E+00  0.00000000000E+00  0.45593999997E+02  0.45594000000E+02  0.51100000000E-03 0.  1.
         11   -1    0    0    0    0 -0.00000000000E+00 -0.00000000000E+00 -0.45593999997E+02  0.45594000000E+02  0.51100000000E-03 0. -1.
    9900012    2    1    2    0    0  0.28222978797E+02 -0.24463769042E+02 -0.25181362185E+02  0.46142317306E+02  0.99999958475E+01 0.  0.
        -12    1    1    2    0    0 -0.28222978797E+02  0.24463769042E+02  0.25181362185E+02  0.45045682694E+02  0.00000000000E+00 0.  1.
         11    1    3    3    0    0  0.35999338211E+01 -0.13655639408E+01 -0.32919024386E+01  0.50656599095E+01  0.51100000000E-03 0. -1.
        -11    1    3    3    0    0  0.89728256203E+01 -0.97962430992E+01 -0.13347537188E+02  0.18831747867E+02  0.51100000000E-03 0.  1.
        -12    1    3    3    0    0  0.15650219356E+02 -0.13301962002E+02 -0.85419225580E+01  0.22244909529E+02  0.00000000000E+00 0.  1.
</event>
<event>
 7    1  0.4119299E-008  0.4614232E+02  0.7816164E-02  0.1320468E+00
        -11   -1    0    0    0    0  0.00000000000E+00  0.00000000000E+00  0.45593999997E+02  0.45594000000E+02  0.51100000000E-03 0.  1.
         11   -1    0    0    0    0 -0.00000000000E+00 -0.00000000000E+00 -0.45593999997E+02  0.45594000000E+02  0.51100000000E-03 0. -1.
    9900012    2    1    2    0    0  0.13768681710E+02 -0.33619871058E+02 -0.26631582547E+02  0.46142317466E+02  0.99999973112E+01 0.  0.
        -12    1    1    2    0    0 -0.13768681710E+02  0.33619871058E+02  0.26631582547E+02  0.45045682534E+02  0.00000000000E+00 0.  1.
         11    1    3    3    0    0  0.25510648667E+01 -0.13119601869E+02 -0.12261747013E+02  0.18137869919E+02  0.51100000000E-03 0. -1.
        -11    1    3    3    0    0 -0.52747314837E+00 -0.23703582585E+00 -0.60990074700E+00  0.84047194319E+00  0.51100000000E-03 0.  1.
        -12    1    3    3    0    0  0.11745089991E+02 -0.20263233364E+02 -0.13759934787E+02  0.27163975604E+02  0.00000000000E+00 0.  1.
</event>
<event>
 7    1  0.4119299E-008  0.4614230E+02  0.7816164E-02  0.1320468E+00
        -11   -1    0    0    0    0  0.00000000000E+00  0.00000000000E+00  0.45593999997E+02  0.45594000000E+02  0.51100000000E-03 0.  1.
         11   -1    0    0    0    0 -0.00000000000E+00 -0.00000000000E+00 -0.45593999997E+02  0.45594000000E+02  0.51100000000E-03 0. -1.
    9900012    2    1    2    0    0 -0.30019073507E+02 -0.20770240097E+00 -0.33584620821E+02  0.46142304643E+02  0.99998803739E+01 0.  0.
        -12    1    1    2    0    0  0.30019073507E+02  0.20770240097E+00  0.33584620821E+02  0.45045695357E+02  0.00000000000E+00 0.  1.
         11    1    3    3    0    0 -0.91993213395E+01  0.18591755280E+01 -0.14104621944E+02  0.16941794686E+02  0.51100000000E-03 0. -1.
        -11    1    3    3    0    0 -0.96131906433E+01  0.46282507608E+00 -0.12433202428E+02  0.15722982041E+02  0.51100000000E-03 0.  1.
        -12    1    3    3    0    0 -0.11206561524E+02 -0.25297030051E+01 -0.70467964492E+01  0.13477527915E+02  0.00000000000E+00 0.  1.
</event>
<event>
 7    1  0.4119299E-008  0.4614232E+02  0.7816164E-02  0.1320468E+00
        -11   -1    0    0    0    0  0.00000000000E+00  0.00000000000E+00  0.45593999997E+02  0.45594000000E+02  0.51100000000E-03 0. -1.
         11   -1    0    0    0    0 -0.00000000000E+00 -0.00000000000E+00 -0.45593999997E+02  0.45594000000E+02  0.51100000000E-03 0.  1.
    9900012    2    1    2    0    0  0.22469761631E+02 -0.38017008540E+02  0.88842730579E+01  0.46142318367E+02  0.10000005521E+02 0.  0.
        -12    1    1    2    0    0 -0.22469761631E+02  0.38017008540E+02 -0.88842730579E+01  0.45045681633E+02  0.00000000000E+00 0.  1.
         11    1    3    3    0    0  0.14511436226E+02 -0.22095642974E+02  0.59485843610E+01  0.27095846101E+02  0.51100000000E-03 0. -1.
        -11    1    3    3    0    0  0.37707153952E+01 -0.13179379990E+02  0.12511548036E+01  0.13765164007E+02  0.51100000000E-03 0.  1.
         12    1    3    3    0    0  0.41876100096E+01 -0.27419855755E+01  0.16845338932E+01  0.52813082590E+01  0.00000000000E+00 0. -1.
</event>
<event>
 7    1  0.4119299E-008  0.4614232E+02  0.7816164E-02  0.1320468E+00
        -11   -1    0    0    0    0  0.00000000000E+00  0.00000000000E+00  0.45593999997E+02  0.45594000000E+02  0.51100000000E-03 0.  1.
         11   -1    0    0    0    0 -0.00000000000E+00 -0.00000000000E+00 -0.45593999997E+02  0.45594000000E+02  0.51100000000E-03 0. -1.
    9900012    2    1    2    0    0 -0.28904209565E+02  0.22363737844E+01 -0.34476931158E+02  0.46142317850E+02  0.10000000808E+02 0.  0.
        -12    1    1    2    0    0  0.28904209565E+02 -0.22363737844E+01  0.34476931158E+02  0.45045682150E+02  0.00000000000E+00 0.  1.
         11    1    3    3    0    0 -0.10793071224E+02  0.21901432996E+00 -0.85405247390E+01  0.13765134101E+02  0.51100000000E-03 0.  1.
        -11    1    3    3    0    0 -0.37088156712E+01 -0.80579293096E+00 -0.19753616296E+01  0.42786294254E+01  0.51100000000E-03 0. -1.
        -12    1    3    3    0    0 -0.14402322670E+02  0.28231523854E+01 -0.23961044789E+02  0.28098554324E+02  0.00000000000E+00 0.  1.
</event>
<event>
 7    1  0.4119299E-008  0.4614232E+02  0.7816164E-02  0.1320468E+00
        -11   -1    0    0    0    0  0.00000000000E+00  0.00000000000E+00  0.45593999997E+02  0.45594000000E+02  0.51100000000E-03 0. -1.
         11   -1    0    0    0    0 -0.00000000000E+00 -0.00000000000E+00 -0.45593999997E+02  0.45594000000E+02  0.51100000000E-03 0.  1.
    9900012    2    1    2    0    0  0.17531087335E+02 -0.41481722970E+02  0.10203821215E+01  0.46142317150E+02  0.99999944310E+01 0.  0.
        -12    1    1    2    0    0 -0.17531087335E+02  0.41481722970E+02 -0.10203821215E+01  0.45045682850E+02  0.00000000000E+00 0.  1.
         11    1    3    3    0    0  0.11220944124E+02 -0.35244923511E+02  0.12203844946E+01  0.37008155302E+02  0.51100000000E-03 0. -1.
        -11    1    3    3    0    0  0.15662505420E+01 -0.28418364077E+01 -0.54544999543E+00  0.32903937283E+01  0.51100000000E-03 0.  1.
         12    1    3    3    0    0  0.47438926690E+01 -0.33949630516E+01  0.34544762234E+00  0.58437681197E+01  0.00000000000E+00 0. -1.
</event>
<event>
 7    1  0.4119299E-008  0.4614232E+02  0.7816164E-02  0.1320468E+00
        -11   -1    0    0    0    0  0.00000000000E+00  0.00000000000E+00  0.45593999997E+02  0.45594000000E+02  0.51100000000E-03 0. -1.
         11   -1    0    0    0    0 -0.00000000000E+00 -0.00000000000E+00 -0.45593999997E+02  0.45594000000E+02  0.51100000000E-03 0.  1.
    9900012    2    1    2    0    0 -0.18303455695E+02 -0.41224156654E+01  0.40952444519E+02  0.46142317483E+02  0.99999974657E+01 0.  0.
        -12    1    1    2    0    0  0.18303455695E+02  0.41224156654E+01 -0.40952444519E+02  0.45045682517E+02  0.00000000000E+00 0.  1.
         11    1    3    3    0    0 -0.11624132831E+02 -0.29751149107E+01  0.30956660092E+02  0.33200701455E+02  0.51100000000E-03 0.  1.
        -11    1    3    3    0    0 -0.32739462655E+00 -0.19704912074E+00  0.44196340761E+01  0.44361223185E+01  0.51100000000E-03 0. -1.
        -12    1    3    3    0    0 -0.63519282378E+01 -0.95025163394E+00  0.55761503517E+01  0.85054937100E+01  0.00000000000E+00 0.  1.
</event>
<event>
 7    1  0.4119299E-008  0.4614232E+02  0.7816164E-02  0.1320468E+00
        -11   -1    0    0    0    0  0.00000000000E+00  0.00000000000E+00  0.45593999997E+02  0.45594000000E+02  0.51100000000E-03 0.  1.
         11   -1    0    0    0    0 -0.00000000000E+00 -0.00000000000E+00 -0.45593999997E+02  0.45594000000E+02  0.51100000000E-03 0. -1.
    9900012    2    1    2    0    0  0.29973152781E+00  0.17656717690E+02 -0.41439884373E+02  0.46142317239E+02  0.99999952378E+01 0.  0.
        -12    1    1    2    0    0 -0.29973152781E+00 -0.17656717690E+02  0.41439884373E+02  0.45045682761E+02  0.00000000000E+00 0.  1.
         11    1    3    3    0    0 -0.10230319642E+01  0.51679665262E+01 -0.15462694097E+02  0.16335525134E+02  0.51100000000E-03 0. -1.
        -11    1    3    3    0    0  0.25400199289E+01  0.99964538463E+00 -0.78478836434E+01  0.83090474830E+01  0.51100000000E-03 0.  1.
        -12    1    3    3    0    0 -0.12172564369E+01  0.11489105779E+02 -0.18129306633E+02  0.21497744622E+02  0.00000000000E+00 0.  1.
</event>
<event>
 7    1  0.4119299E-008  0.4614232E+02  0.7816164E-02  0.1320468E+00
        -11   -1    0    0    0    0  0.00000000000E+00  0.00000000000E+00  0.45593999997E+02  0.45594000000E+02  0.51100000000E-03 0. -1.
         11   -1    0    0    0    0 -0.00000000000E+00 -0.00000000000E+00 -0.45593999997E+02  0.45594000000E+02  0.51100000000E-03 0.  1.
    9900012    2    1    2    0    0  0.27824727871E+02  0.34194299313E+02  0.92546147513E+01  0.46142317845E+02  0.10000000766E+02 0.  0.
        -12    1    1    2    0    0 -0.27824727871E+02 -0.34194299313E+02 -0.92546147513E+01  0.45045682155E+02  0.00000000000E+00 0.  1.
         11    1    3    3    0    0  0.56927286891E+01  0.33158452554E+01  0.28394124773E+01  0.71738590147E+01  0.51100000000E-03 0. -1.
        -11    1    3    3    0    0  0.12630458515E+02  0.19596884507E+02  0.65537266254E+01  0.24218127459E+02  0.51100000000E-03 0.  1.
         12    1    3    3    0    0  0.95015406671E+01  0.11281569550E+02 -0.13852435141E+00  0.14750331371E+02  0.00000000000E+00 0. -1.
</event>
<event>
 7    1  0.4119299E-008  0.4614232E+02  0.7816164E-02  0.1320468E+00
        -11   -1    0    0    0    0  0.00000000000E+00  0.00000000000E+00  0.45593999997E+02  0.45594000000E+02  0.51100000000E-03 0.  1.
         11   -1    0    0    0    0 -0.00000000000E+00 -0.00000000000E+00 -0.45593999997E+02  0.45594000000E+02  0.51100000000E-03 0. -1.
    9900012    2    1    2    0    0 -0.17218164084E+02  0.19495815647E+02 -0.36777187698E+02  0.46142317220E+02  0.99999950626E+01 0.  0.
        -12    1    1    2    0    0  0.17218164084E+02 -0.19495815647E+02  0.36777187698E+02  0.45045682780E+02  0.00000000000E+00 0.  1.
         11    1    3    3    0    0 -0.27217341373E+01  0.26673643920E+01 -0.42021737885E+01  0.56728241929E+01  0.51100000000E-03 0. -1.
        -11    1    3    3    0    0 -0.10502880337E+02  0.13663820863E+02 -0.30366345966E+02  0.34915977195E+02  0.51100000000E-03 0.  1.
        -12    1    3    3    0    0 -0.39935496097E+01  0.31646303917E+01 -0.22086679442E+01  0.55535158313E+01  0.00000000000E+00 0.  1.
</event>
<event>
 7    1  0.4119299E-008  0.4614232E+02  0.7816164E-02  0.1320468E+00
        -11   -1    0    0    0    0  0.00000000000E+00  0.00000000000E+00  0.45593999997E+02  0.45594000000E+02  0.51100000000E-03 0. -1.
         11   -1    0    0    0    0 -0.00000000000E+00 -0.00000000000E+00 -0.45593999997E+02  0.45594000000E+02  0.51100000000E-03 0.  1.
    9900012    2    1    2    0    0 -0.16029397398E+02 -0.39356341261E+02  0.14941563750E+02  0.46142317569E+02  0.99999982451E+01 0.  0.
        -12    1    1    2    0    0  0.16029397398E+02  0.39356341261E+02 -0.14941563750E+02  0.45045682431E+02  0.00000000000E+00 0.  1.
         11    1    3    3    0    0 -0.22757857937E+01 -0.12980777221E+01  0.16772661937E+00  0.26253264999E+01  0.51100000000E-03 0. -1.
        -11    1    3    3    0    0 -0.43696327610E+00 -0.59217049427E+01  0.37622424844E+01  0.70293666219E+01  0.51100000000E-03 0.  1.
         12    1    3    3    0    0 -0.13316648328E+02 -0.32136558596E+02  0.11011594646E+02  0.36487624447E+02  0.00000000000E+00 0. -1.
</event>
<event>
 7    1  0.4119299E-008  0.4614232E+02  0.7816164E-02  0.1320468E+00
        -11   -1    0    0    0    0  0.00000000000E+00  0.00000000000E+00  0.45593999997E+02  0.45594000000E+02  0.51100000000E-03 0. -1.
         11   -1    0    0    0    0 -0.00000000000E+00 -0.00000000000E+00 -0.45593999997E+02  0.45594000000E+02  0.51100000000E-03 0.  1.
    9900012    2    1    2    0    0 -0.34692070712E+02  0.12430113852E+02 -0.25904940536E+02  0.46142318244E+02  0.10000004406E+02 0.  0.
        -12    1    1    2    0    0  0.34692070712E+02 -0.12430113852E+02  0.25904940536E+02  0.45045681756E+02  0.00000000000E+00 0.  1.
         11    1    3    3    0    0 -0.15419202533E+01 -0.46807005602E+00 -0.10068556695E+01  0.19000963779E+01  0.51100000000E-03 0.  1.
        -11    1    3    3    0    0 -0.14878280132E+02  0.16298850053E+01 -0.83628222876E+01  0.17145160883E+02  0.51100000000E-03 0. -1.
         12    1    3    3    0    0 -0.18271870326E+02  0.11268298903E+02 -0.16535262579E+02  0.27097060984E+02  0.00000000000E+00 0. -1.
</event>
<event>
 7    1  0.4119299E-008  0.4614232E+02  0.7816164E-02  0.1320468E+00
        -11   -1    0    0    0    0  0.00000000000E+00  0.00000000000E+00  0.45593999997E+02  0.45594000000E+02  0.51100000000E-03 0. -1.
         11   -1    0    0    0    0 -0.00000000000E+00 -0.00000000000E+00 -0.45593999997E+02  0.45594000000E+02  0.51100000000E-03 0.  1.
    9900012    2    1    2    0    0 -0.37090276621E+02  0.23325138498E+02  0.10457665688E+02  0.46142317882E+02  0.10000001105E+02 0.  0.
        -12    1    1    2    0    0  0.37090276621E+02 -0.23325138498E+02 -0.10457665688E+02  0.45045682118E+02  0.00000000000E+00 0.  1.
         11    1    3    3    0    0 -0.86667867788E+00  0.15812449635E+01  0.13942839782E+01  0.22793629896E+01  0.51100000000E-03 0. -1.
        -11    1    3    3    0    0 -0.91046914929E+01  0.77947822258E+01 -0.21211430660E+00  0.11987453018E+02  0.51100000000E-03 0.  1.
         12    1    3    3    0    0 -0.27118906451E+02  0.13949111309E+02  0.92754960168E+01  0.31875501874E+02  0.00000000000E+00 0. -1.
</event>
<event>
 7    1  0.4119299E-008  0.4614232E+02  0.7816164E-02  0.1320468E+00
        -11   -1    0    0    0    0  0.00000000000E+00  0.00000000000E+00  0.45593999997E+02  0.45594000000E+02  0.51100000000E-03 0.  1.
         11   -1    0    0    0    0 -0.00000000000E+00 -0.00000000000E+00 -0.45593999997E+02  0.45594000000E+02  0.51100000000E-03 0. -1.
    9900012    2    1    2    0    0  0.13786426160E+02  0.24501509465E+02 -0.35195510561E+02  0.46142317898E+02  0.10000001251E+02 0.  0.
        -12    1    1    2    0    0 -0.13786426160E+02 -0.24501509465E+02  0.35195510561E+02  0.45045682102E+02  0.00000000000E+00 0.  1.
         11    1    3    3    0    0  0.10181679978E+01 -0.45053761249E+00 -0.45126354678E+00  0.12013697440E+01  0.51100000000E-03 0. -1.
        -11    1    3    3    0    0  0.21394428978E+01  0.19061754918E+01 -0.56362996369E+01  0.63228628624E+01  0.51100000000E-03 0.  1.
         12    1    3    3    0    0  0.10628815264E+02  0.23045871586E+02 -0.29107947378E+02  0.38618085292E+02  0.00000000000E+00 0. -1.
</event>
<event>
 7    1  0.4119299E-008  0.4614232E+02  0.7816164E-02  0.1320468E+00
        -11   -1    0    0    0    0  0.00000000000E+00  0.00000000000E+00  0.45593999997E+02  0.45594000000E+02  0.51100000000E-03 0.  1.
         11   -1    0    0    0    0 -0.00000000000E+00 -0.00000000000E+00 -0.45593999997E+02  0.45594000000E+02  0.51100000000E-03 0. -1.
    9900012    2    1    2    0    0  0.27704411970E+02 -0.78449199902E+01 -0.34641539901E+02  0.46142317644E+02  0.99999989315E+01 0.  0.
        -12    1    1    2    0    0 -0.27704411970E+02  0.78449199902E+01  0.34641539901E+02  0.45045682356E+02  0.00000000000E+00 0.  1.
         11    1    3    3    0    0  0.30812967761E+01  0.91114327541E+00 -0.43368933483E+01  0.53975194364E+01  0.51100000000E-03 0. -1.
        -11    1    3    3    0    0  0.17432787733E+02 -0.97221610719E+01 -0.21526519324E+02  0.29356660888E+02  0.51100000000E-03 0.  1.
        -12    1    3    3    0    0  0.71903274602E+01  0.96609780629E+00 -0.87781272287E+01  0.11388137319E+02  0.00000000000E+00 0.  1.
</event>
<event>
 7    1  0.4119299E-008  0.4614232E+02  0.7816164E-02  0.1320468E+00
        -11   -1    0    0    0    0  0.00000000000E+00  0.00000000000E+00  0.45593999997E+02  0.45594000000E+02  0.51100000000E-03 0. -1.
         11   -1    0    0    0    0 -0.00000000000E+00 -0.00000000000E+00 -0.45593999997E+02  0.45594000000E+02  0.51100000000E-03 0.  1.
    9900012    2    1    2    0    0  0.14463910723E+02 -0.40623926768E+02  0.13023260731E+02  0.46142318081E+02  0.10000002916E+02 0.  0.
        -12    1    1    2    0    0 -0.14463910723E+02  0.40623926768E+02 -0.13023260731E+02  0.45045681919E+02  0.00000000000E+00 0.  1.
         11    1    3    3    0    0  0.76372938009E+01 -0.14024294541E+02  0.52982407141E+01  0.16824994767E+02  0.51100000000E-03 0. -1.
        -11    1    3    3    0    0  0.73611535535E+01 -0.24531615388E+02  0.54288558439E+01  0.26181275966E+02  0.51100000000E-03 0.  1.
         12    1    3    3    0    0 -0.53453663101E+00 -0.20680168389E+01  0.22961641733E+01  0.31360473476E+01  0.00000000000E+00 0. -1.
</event>
<event>
 7    1  0.4119299E-008  0.4614232E+02  0.7816164E-02  0.1320468E+00
        -11   -1    0    0    0    0  0.00000000000E+00  0.00000000000E+00  0.45593999997E+02  0.45594000000E+02  0.51100000000E-03 0.  1.
         11   -1    0    0    0    0 -0.00000000000E+00 -0.00000000000E+00 -0.45593999997E+02  0.45594000000E+02  0.51100000000E-03 0. -1.
    9900012    2    1    2    0    0  0.18532400918E+02 -0.33123957312E+02 -0.24258341170E+02  0.46142317098E+02  0.99999939551E+01 0.  0.
        -12    1    1    2    0    0 -0.18532400918E+02  0.33123957312E+02  0.24258341170E+02  0.45045682902E+02  0.00000000000E+00 0.  1.
         11    1    3    3    0    0  0.80588303228E+01 -0.11112706866E+02 -0.91771238071E+01  0.16512316666E+02  0.51100000000E-03 0. -1.
        -11    1    3    3    0    0  0.83641483742E+01 -0.13359493871E+02 -0.13128482092E+02  0.20513217612E+02  0.51100000000E-03 0.  1.
        -12    1    3    3    0    0  0.21094222211E+01 -0.86517565752E+01 -0.19527352708E+01  0.91167828197E+01  0.00000000000E+00 0.  1.
</event>
<event>
 7    1  0.4119299E-008  0.4614232E+02  0.7816164E-02  0.1320468E+00
        -11   -1    0    0    0    0  0.00000000000E+00  0.00000000000E+00  0.45593999997E+02  0.45594000000E+02  0.51100000000E-03 0. -1.
         11   -1    0    0    0    0 -0.00000000000E+00 -0.00000000000E+00 -0.45593999997E+02  0.45594000000E+02  0.51100000000E-03 0.  1.
    9900012    2    1    2    0    0  0.28080924965E+02 -0.35219868794E+02 -0.36836879003E+00  0.46142320959E+02  0.10000029158E+02 0.  0.
        -12    1    1    2    0    0 -0.28080924965E+02  0.35219868794E+02  0.36836879003E+00  0.45045679041E+02  0.00000000000E+00 0.  1.
         11    1    3    3    0    0  0.64905266413E+01 -0.13229344221E+02 -0.31318563335E+01  0.15064893260E+02  0.51100000000E-03 0. -1.
        -11    1    3    3    0    0  0.27312849296E+01 -0.23342866624E+01  0.12164845552E+01  0.37932369453E+01  0.51100000000E-03 0.  1.
        -12    1    3    3    0    0  0.18859113394E+02 -0.19656237911E+02  0.15470029883E+01  0.27284190753E+02  0.00000000000E+00 0.  1.
</event>
<event>
 7    1  0.4119299E-008  0.4614232E+02  0.7816164E-02  0.1320468E+00
        -11   -1    0    0    0    0  0.00000000000E+00  0.00000000000E+00  0.45593999997E+02  0.45594000000E+02  0.51100000000E-03 0. -1.
         11   -1    0    0    0    0 -0.00000000000E+00 -0.00000000000E+00 -0.45593999997E+02  0.45594000000E+02  0.51100000000E-03 0.  1.
    9900012    2    1    2    0    0  0.39834942743E+02 -0.14779805314E+02 -0.14961557405E+02  0.46142317538E+02  0.99999979699E+01 0.  0.
        -12    1    1    2    0    0 -0.39834942743E+02  0.14779805314E+02  0.14961557405E+02  0.45045682462E+02  0.00000000000E+00 0.  1.
         11    1    3    3    0    0  0.15820190720E+02 -0.87901081744E+01 -0.47082661397E+01  0.18700593746E+02  0.51100000000E-03 0. -1.
        -11    1    3    3    0    0  0.17275760229E+01 -0.16249929739E+00  0.77642546449E+00  0.19009896632E+01  0.51100000000E-03 0.  1.
         12    1    3    3    0    0  0.22287175999E+02 -0.58271978423E+01 -0.11029716730E+02  0.25540734129E+02  0.00000000000E+00 0. -1.
</event>
<event>
 7    1  0.4119299E-008  0.4614232E+02  0.7816164E-02  0.1320468E+00
        -11   -1    0    0    0    0  0.00000000000E+00  0.00000000000E+00  0.45593999997E+02  0.45594000000E+02  0.51100000000E-03 0.  1.
         11   -1    0    0    0    0 -0.00000000000E+00 -0.00000000000E+00 -0.45593999997E+02  0.45594000000E+02  0.51100000000E-03 0. -1.
    9900012    2    1    2    0    0  0.35468325921E+00  0.42399782081E+02 -0.15206783696E+02  0.46142316620E+02  0.99999895987E+01 0.  0.
        -12    1    1    2    0    0 -0.35468325921E+00 -0.42399782081E+02  0.15206783696E+02  0.45045683380E+02  0.00000000000E+00 0.  1.
         11    1    3    3    0    0  0.10633787215E+01  0.59902993538E+01 -0.41965021782E+00  0.60984069412E+01  0.51100000000E-03 0. -1.
        -11    1    3    3    0    0 -0.14982217221E+01  0.16435327390E+02 -0.28109861807E+01  0.16741155824E+02  0.51100000000E-03 0.  1.
         12    1    3    3    0    0  0.78952625989E+00  0.19974155337E+02 -0.11976147298E+02  0.23302753855E+02  0.00000000000E+00 0. -1.
</event>
<event>
 7    1  0.4119299E-008  0.4614233E+02  0.7816164E-02  0.1320468E+00
        -11   -1    0    0    0    0  0.00000000000E+00  0.00000000000E+00  0.45593999997E+02  0.45594000000E+02  0.51100000000E-03 0.  1.
         11   -1    0    0    0    0 -0.00000000000E+00 -0.00000000000E+00 -0.45593999997E+02  0.45594000000E+02  0.51100000000E-03 0. -1.
    9900012    2    1    2    0    0 -0.31763349286E+01  0.39622004385E+02  0.21192444464E+02  0.46142333866E+02  0.10000146857E+02 0.  0.
        -12    1    1    2    0    0  0.31763349286E+01 -0.39622004385E+02 -0.21192444464E+02  0.45045666134E+02  0.00000000000E+00 0.  1.
         11    1    3    3    0    0 -0.45177669763E+01  0.17358059394E+02  0.71969228664E+01  0.19326358772E+02  0.51100000000E-03 0. -1.
        -11    1    3    3    0    0  0.12885592479E+00  0.14325840113E-01  0.10251135039E+01  0.10332797472E+01  0.51100000000E-03 0.  1.
        -12    1    3    3    0    0  0.12125761230E+01  0.22249619151E+02  0.12970408094E+02  0.25782695347E+02  0.00000000000E+00 0.  1.
</event>
<event>
 7    1  0.4119299E-008  0.4614232E+02  0.7816164E-02  0.1320468E+00
        -11   -1    0    0    0    0  0.00000000000E+00  0.00000000000E+00  0.45593999997E+02  0.45594000000E+02  0.51100000000E-03 0.  1.
         11   -1    0    0    0    0 -0.00000000000E+00 -0.00000000000E+00 -0.45593999997E+02  0.45594000000E+02  0.51100000000E-03 0. -1.
    9900012    2    1    2    0    0  0.15129973352E+02  0.18676234194E+01 -0.42387609276E+02  0.46142317288E+02  0.99999956864E+01 0.  0.
        -12    1    1    2    0    0 -0.15129973352E+02 -0.18676234194E+01  0.42387609276E+02  0.45045682712E+02  0.00000000000E+00 0.  1.
         11    1    3    3    0    0  0.11570982735E+02  0.23656847749E+01 -0.28177393092E+02  0.30552407231E+02  0.51100000000E-03 0. -1.
        -11    1    3    3    0    0  0.29642818184E+01 -0.34114593385E+00 -0.14573329457E+02  0.14875660623E+02  0.51100000000E-03 0.  1.
        -12    1    3    3    0    0  0.59470879891E+00 -0.15691542167E+00  0.36311327297E+00  0.71424943406E+00  0.00000000000E+00 0.  1.
</event>
<event>
 7    1  0.4119299E-008  0.4614232E+02  0.7816164E-02  0.1320468E+00
        -11   -1    0    0    0    0  0.00000000000E+00  0.00000000000E+00  0.45593999997E+02  0.45594000000E+02  0.51100000000E-03 0.  1.
         11   -1    0    0    0    0 -0.00000000000E+00 -0.00000000000E+00 -0.45593999997E+02  0.45594000000E+02  0.51100000000E-03 0. -1.
    9900012    2    1    2    0    0  0.42634385986E+02  0.14423053197E+02  0.18434084158E+01  0.46142317782E+02  0.10000000186E+02 0.  0.
        -12    1    1    2    0    0 -0.42634385986E+02 -0.14423053197E+02 -0.18434084158E+01  0.45045682218E+02  0.00000000000E+00 0.  1.
         11    1    3    3    0    0  0.29247507728E+02  0.90344176492E+01  0.18015086721E+01  0.30664031769E+02  0.51100000000E-03 0. -1.
        -11    1    3    3    0    0  0.13736012962E+02  0.56871323260E+01 -0.35528471873E+00  0.14871037411E+02  0.51100000000E-03 0.  1.
        -12    1    3    3    0    0 -0.34913470320E+00 -0.29849677851E+00  0.39718446248E+00  0.60724860230E+00  0.00000000000E+00 0.  1.
</event>
<event>
 7    1  0.4119299E-008  0.4614232E+02  0.7816164E-02  0.1320468E+00
        -11   -1    0    0    0    0  0.00000000000E+00  0.00000000000E+00  0.45593999997E+02  0.45594000000E+02  0.51100000000E-03 0.  1.
         11   -1    0    0    0    0 -0.00000000000E+00 -0.00000000000E+00 -0.45593999997E+02  0.45594000000E+02  0.51100000000E-03 0. -1.
    9900012    2    1    2    0    0 -0.43699225433E+02 -0.37945921136E+01 -0.10251447521E+02  0.46142318642E+02  0.10000008029E+02 0.  0.
        -12    1    1    2    0    0  0.43699225433E+02  0.37945921136E+01  0.10251447521E+02  0.45045681358E+02  0.00000000000E+00 0.  1.
         11    1    3    3    0    0 -0.32748778612E+01 -0.79946377876E+00 -0.77549323413E-02  0.33710573623E+01  0.51100000000E-03 0. -1.
        -11    1    3    3    0    0 -0.12545149676E+01 -0.18964653189E+01 -0.18656416784E-01  0.22739254237E+01  0.51100000000E-03 0.  1.
         12    1    3    3    0    0 -0.39169832604E+02 -0.10986630159E+01 -0.10225036172E+02  0.40497335856E+02  0.00000000000E+00 0. -1.
</event>
<event>
 7    1  0.4119299E-008  0.4614232E+02  0.7816164E-02  0.1320468E+00
        -11   -1    0    0    0    0  0.00000000000E+00  0.00000000000E+00  0.45593999997E+02  0.45594000000E+02  0.51100000000E-03 0.  1.
         11   -1    0    0    0    0 -0.00000000000E+00 -0.00000000000E+00 -0.45593999997E+02  0.45594000000E+02  0.51100000000E-03 0. -1.
    9900012    2    1    2    0    0 -0.23388077037E+02  0.38475412049E+02 -0.13243723077E+01  0.46142318277E+02  0.10000004706E+02 0.  0.
        -12    1    1    2    0    0  0.23388077037E+02 -0.38475412049E+02  0.13243723077E+01  0.45045681723E+02  0.00000000000E+00 0.  1.
         11    1    3    3    0    0 -0.17384966440E+02  0.24932611387E+02 -0.23289682645E+00  0.30396157814E+02  0.51100000000E-03 0. -1.
        -11    1    3    3    0    0 -0.21512994393E+01  0.88720140476E+01  0.13304362610E+01  0.92255505767E+01  0.51100000000E-03 0.  1.
        -12    1    3    3    0    0 -0.38518111583E+01  0.46707866151E+01 -0.24219117422E+01  0.65206098863E+01  0.00000000000E+00 0.  1.
</event>
<event>
 7    1  0.4119299E-008  0.4614231E+02  0.7816164E-02  0.1320468E+00
        -11   -1    0    0    0    0  0.00000000000E+00  0.00000000000E+00  0.45593999997E+02  0.45594000000E+02  0.51100000000E-03 0.  1.
         11   -1    0    0    0    0 -0.00000000000E+00 -0.00000000000E+00 -0.45593999997E+02  0.45594000000E+02  0.51100000000E-03 0. -1.
    9900012    2    1    2    0    0 -0.10709910168E+02  0.31329797742E+02 -0.30542681052E+02  0.46142314655E+02  0.99999716752E+01 0.  0.
        -12    1    1    2    0    0  0.10709910168E+02 -0.31329797742E+02  0.30542681052E+02  0.45045685345E+02  0.00000000000E+00 0.  1.
         11    1    3    3    0    0 -0.91839292387E+00  0.57106135892E+01 -0.61981889231E+01  0.84777414042E+01  0.51100000000E-03 0. -1.
        -11    1    3    3    0    0 -0.25883470182E+01  0.81703227578E+01 -0.13214746616E+02  0.15750658482E+02  0.51100000000E-03 0.  1.
         12    1    3    3    0    0 -0.72031702264E+01  0.17448861395E+02 -0.11129745513E+02  0.21913914768E+02  0.00000000000E+00 0. -1.
</event>
<event>
 7    1  0.4119299E-008  0.4614232E+02  0.7816164E-02  0.1320468E+00
        -11   -1    0    0    0    0  0.00000000000E+00  0.00000000000E+00  0.45593999997E+02  0.45594000000E+02  0.51100000000E-03 0.  1.
         11   -1    0    0    0    0 -0.00000000000E+00 -0.00000000000E+00 -0.45593999997E+02  0.45594000000E+02  0.51100000000E-03 0. -1.
    9900012    2    1    2    0    0 -0.33781167191E+02 -0.87468473862E+01 -0.28485765077E+02  0.46142318653E+02  0.10000008135E+02 0.  0.
        -12    1    1    2    0    0  0.33781167191E+02  0.87468473862E+01  0.28485765077E+02  0.45045681347E+02  0.00000000000E+00 0.  1.
         11    1    3    3    0    0 -0.14552883866E+02 -0.73677220488E+01 -0.12976430003E+02  0.20843643945E+02  0.51100000000E-03 0. -1.
        -11    1    3    3    0    0 -0.93680262025E+00 -0.86104797704E+00  0.58293266122E-01  0.12737351114E+01  0.51100000000E-03 0.  1.
         12    1    3    3    0    0 -0.18291480705E+02 -0.51807736035E+00 -0.15567628340E+02  0.24024939597E+02  0.00000000000E+00 0. -1.
</event>
<event>
 7    1  0.4119299E-008  0.4614232E+02  0.7816164E-02  0.1320468E+00
        -11   -1    0    0    0    0  0.00000000000E+00  0.00000000000E+00  0.45593999997E+02  0.45594000000E+02  0.51100000000E-03 0.  1.
         11   -1    0    0    0    0 -0.00000000000E+00 -0.00000000000E+00 -0.45593999997E+02  0.45594000000E+02  0.51100000000E-03 0. -1.
    9900012    2    1    2    0    0  0.22635634669E+02 -0.16914614785E+01 -0.38908616730E+02  0.46142318135E+02  0.10000003409E+02 0.  0.
        -12    1    1    2    0    0 -0.22635634669E+02  0.16914614785E+01  0.38908616730E+02  0.45045681865E+02  0.00000000000E+00 0.  1.
         11    1    3    3    0    0  0.18299465171E+01  0.83081371820E+00 -0.10895603257E+02  0.11079400990E+02  0.51100000000E-03 0. -1.
        -11    1    3    3    0    0  0.10606468807E+02 -0.11778315857E+00 -0.13884257252E+02  0.17472368275E+02  0.51100000000E-03 0.  1.
        -12    1    3    3    0    0  0.10199219345E+02 -0.24044920381E+01 -0.14128756221E+02  0.17590548870E+02  0.00000000000E+00 0.  1.
</event>
<event>
 7    1  0.4119299E-008  0.4614232E+02  0.7816164E-02  0.1320468E+00
        -11   -1    0    0    0    0  0.00000000000E+00  0.00000000000E+00  0.45593999997E+02  0.45594000000E+02  0.51100000000E-03 0.  1.
         11   -1    0    0    0    0 -0.00000000000E+00 -0.00000000000E+00 -0.45593999997E+02  0.45594000000E+02  0.51100000000E-03 0. -1.
    9900012    2    1    2    0    0 -0.10719580131E+02  0.15084374401E+02 -0.41069034590E+02  0.46142319282E+02  0.10000013868E+02 0.  0.
        -12    1    1    2    0    0  0.10719580131E+02 -0.15084374401E+02  0.41069034590E+02  0.45045680718E+02  0.00000000000E+00 0.  1.
         11    1    3    3    0    0 -0.39944430346E+01  0.17367942406E+01 -0.11279613667E+02  0.12091390083E+02  0.51100000000E-03 0. -1.
        -11    1    3    3    0    0 -0.50888123468E+01  0.28696193054E+01 -0.11835821501E+02  0.13199143795E+02  0.51100000000E-03 0.  1.
        -12    1    3    3    0    0 -0.16363247495E+01  0.10477960855E+02 -0.17953599421E+02  0.20851785404E+02  0.00000000000E+00 0.  1.
</event>
<event>
 7    1  0.4119299E-008  0.4614232E+02  0.7816164E-02  0.1320468E+00
        -11   -1    0    0    0    0  0.00000000000E+00  0.00000000000E+00  0.45593999997E+02  0.45594000000E+02  0.51100000000E-03 0. -1.
         11   -1    0    0    0    0 -0.00000000000E+00 -0.00000000000E+00 -0.45593999997E+02  0.45594000000E+02  0.51100000000E-03 0.  1.
    9900012    2    1    2    0    0  0.37912986082E+02 -0.19178435061E+02  0.14963513185E+02  0.46142316390E+02  0.99999874959E+01 0.  0.
        -12    1    1    2    0    0 -0.37912986082E+02  0.19178435061E+02 -0.14963513185E+02  0.45045683610E+02  0.00000000000E+00 0.  1.
         11    1    3    3    0    0  0.10882476832E+02 -0.68123259621E+01  0.25536283705E+01  0.13090343966E+02  0.51100000000E-03 0.  1.
        -11    1    3    3    0    0  0.22599436378E+02 -0.12348004119E+02  0.84342500814E+01  0.27098787888E+02  0.51100000000E-03 0. -1.
        -12    1    3    3    0    0  0.44310728722E+01 -0.18104979630E-01  0.39756347328E+01  0.59531845359E+01  0.00000000000E+00 0.  1.
</event>
<event>
 7    1  0.4119299E-008  0.4614232E+02  0.7816164E-02  0.1320468E+00
        -11   -1    0    0    0    0  0.00000000000E+00  0.00000000000E+00  0.45593999997E+02  0.45594000000E+02  0.51100000000E-03 0.  1.
         11   -1    0    0    0    0 -0.00000000000E+00 -0.00000000000E+00 -0.45593999997E+02  0.45594000000E+02  0.51100000000E-03 0. -1.
    9900012    2    1    2    0    0  0.62967840356E+01 -0.58225986316E+01 -0.44221729348E+02  0.46142317737E+02  0.99999997805E+01 0.  0.
        -12    1    1    2    0    0 -0.62967840356E+01  0.58225986316E+01  0.44221729348E+02  0.45045682263E+02  0.00000000000E+00 0.  1.
         11    1    3    3    0    0  0.69757292204E+01 -0.37558088903E+01 -0.18773511052E+02  0.20376742038E+02  0.51100000000E-03 0. -1.
        -11    1    3    3    0    0  0.17411150315E+00 -0.27244373750E+01 -0.13785033423E+02  0.14052758468E+02  0.51100000000E-03 0.  1.
        -12    1    3    3    0    0 -0.85305668796E+00  0.65764763364E+00 -0.11663184872E+02  0.11712817231E+02  0.00000000000E+00 0.  1.
</event>
<event>
 7    1  0.4119299E-008  0.4614232E+02  0.7816164E-02  0.1320468E+00
        -11   -1    0    0    0    0  0.00000000000E+00  0.00000000000E+00  0.45593999997E+02  0.45594000000E+02  0.51100000000E-03 0.  1.
         11   -1    0    0    0    0 -0.00000000000E+00 -0.00000000000E+00 -0.45593999997E+02  0.45594000000E+02  0.51100000000E-03 0. -1.
    9900012    2    1    2    0    0 -0.13488954900E+02 -0.10841415442E+02 -0.41588764097E+02  0.46142317719E+02  0.99999996116E+01 0.  0.
        -12    1    1    2    0    0  0.13488954900E+02  0.10841415442E+02  0.41588764097E+02  0.45045682281E+02  0.00000000000E+00 0.  1.
         11    1    3    3    0    0 -0.16081927157E+01 -0.12630372340E+01 -0.91646334625E+00  0.22408596992E+01  0.51100000000E-03 0. -1.
        -11    1    3    3    0    0 -0.22079528730E+01  0.78521815461E+00 -0.61959341428E+01  0.66242904226E+01  0.51100000000E-03 0.  1.
         12    1    3    3    0    0 -0.96728093113E+01 -0.10363596363E+02 -0.34476366608E+02  0.37277167597E+02  0.00000000000E+00 0. -1.
</event>
<event>
 7    1  0.4119299E-008  0.4614232E+02  0.7816164E-02  0.1320468E+00
        -11   -1    0    0    0    0  0.00000000000E+00  0.00000000000E+00  0.45593999997E+02  0.45594000000E+02  0.51100000000E-03 0.  1.
         11   -1    0    0    0    0 -0.00000000000E+00 -0.00000000000E+00 -0.45593999997E+02  0.45594000000E+02  0.51100000000E-03 0. -1.
    9900012    2    1    2    0    0 -0.15127142779E+02 -0.42809013125E+01 -0.42213231160E+02  0.46142318190E+02  0.10000003915E+02 0.  0.
        -12    1    1    2    0    0  0.15127142779E+02  0.42809013125E+01  0.42213231160E+02  0.45045681810E+02  0.00000000000E+00 0.  1.
         11    1    3    3    0    0 -0.58242761375E+01 -0.23205027077E+01 -0.18086352498E+02  0.19142180448E+02  0.51100000000E-03 0. -1.
        -11    1    3    3    0    0 -0.81013541855E+01 -0.45247243632E+01 -0.18031850808E+02  0.20279366706E+02  0.51100000000E-03 0.  1.
        -12    1    3    3    0    0 -0.12015124559E+01  0.25643257584E+01 -0.60950278547E+01  0.67207710366E+01  0.00000000000E+00 0.  1.
</event>
<event>
 7    1  0.4119299E-008  0.4614232E+02  0.7816164E-02  0.1320468E+00
        -11   -1    0    0    0    0  0.00000000000E+00  0.00000000000E+00  0.45593999997E+02  0.45594000000E+02  0.51100000000E-03 0.  1.
         11   -1    0    0    0    0 -0.00000000000E+00 -0.00000000000E+00 -0.45593999997E+02  0.45594000000E+02  0.51100000000E-03 0. -1.
    9900012    2    1    2    0    0 -0.43284542767E+02  0.23964195981E+00 -0.12470142458E+02  0.46142317369E+02  0.99999964237E+01 0.  0.
        -12    1    1    2    0    0  0.43284542767E+02 -0.23964195981E+00  0.12470142458E+02  0.45045682631E+02  0.00000000000E+00 0.  1.
         11    1    3    3    0    0 -0.13993372226E+02  0.17256658075E+01 -0.69752363282E+01  0.15730426277E+02  0.51100000000E-03 0. -1.
        -11    1    3    3    0    0 -0.45231774608E+01  0.13955089127E+01  0.51882529108E+00  0.47619071191E+01  0.51100000000E-03 0.  1.
        -12    1    3    3    0    0 -0.24767993079E+02 -0.28815327604E+01 -0.60137314210E+01  0.25649983973E+02  0.00000000000E+00 0.  1.
</event>
<event>
 7    1  0.4119299E-008  0.4614232E+02  0.7816164E-02  0.1320468E+00
        -11   -1    0    0    0    0  0.00000000000E+00  0.00000000000E+00  0.45593999997E+02  0.45594000000E+02  0.51100000000E-03 0. -1.
         11   -1    0    0    0    0 -0.00000000000E+00 -0.00000000000E+00 -0.45593999997E+02  0.45594000000E+02  0.51100000000E-03 0.  1.
    9900012    2    1    2    0    0  0.64449137781E+01  0.28165723770E+02  0.34558191982E+02  0.46142317164E+02  0.99999945586E+01 0.  0.
        -12    1    1    2    0    0 -0.64449137781E+01 -0.28165723770E+02 -0.34558191982E+02  0.45045682836E+02  0.00000000000E+00 0.  1.
         11    1    3    3    0    0  0.28582632168E+01  0.22729135033E+01  0.44586795677E+01  0.57633001101E+01  0.51100000000E-03 0. -1.
        -11    1    3    3    0    0  0.70510535712E+00  0.34741383887E+01  0.80796323293E+01  0.88231099929E+01  0.51100000000E-03 0.  1.
        -12    1    3    3    0    0  0.28815452041E+01  0.22418671878E+02  0.22019880085E+02  0.31555907061E+02  0.00000000000E+00 0.  1.
</event>
<event>
 7    1  0.4119299E-008  0.4614231E+02  0.7816164E-02  0.1320468E+00
        -11   -1    0    0    0    0  0.00000000000E+00  0.00000000000E+00  0.45593999997E+02  0.45594000000E+02  0.51100000000E-03 0.  1.
         11   -1    0    0    0    0 -0.00000000000E+00 -0.00000000000E+00 -0.45593999997E+02  0.45594000000E+02  0.51100000000E-03 0. -1.
    9900012    2    1    2    0    0 -0.43029085403E+02 -0.85279629999E+01 -0.10241371398E+02  0.46142311731E+02  0.99999450112E+01 0.  0.
        -12    1    1    2    0    0  0.43029085403E+02  0.85279629999E+01  0.10241371398E+02  0.45045688269E+02  0.00000000000E+00 0.  1.
         11    1    3    3    0    0 -0.62311569248E+00  0.38353586677E+00 -0.27647655542E+00  0.78218442463E+00  0.51100000000E-03 0. -1.
        -11    1    3    3    0    0 -0.20665686769E+02 -0.56829141195E+01 -0.52315088385E+00  0.21439211963E+02  0.51100000000E-03 0.  1.
         12    1    3    3    0    0 -0.21740282942E+02 -0.32285847471E+01 -0.94417439583E+01  0.23920915343E+02  0.00000000000E+00 0. -1.
</event>
<event>
 7    1  0.4119299E-008  0.4614232E+02  0.7816164E-02  0.1320468E+00
        -11   -1    0    0    0    0  0.00000000000E+00  0.00000000000E+00  0.45593999997E+02  0.45594000000E+02  0.51100000000E-03 0. -1.
         11   -1    0    0    0    0 -0.00000000000E+00 -0.00000000000E+00 -0.45593999997E+02  0.45594000000E+02  0.51100000000E-03 0.  1.
    9900012    2    1    2    0    0  0.16528760444E+02  0.28125299645E+02  0.31062535042E+02  0.46142317796E+02  0.10000000321E+02 0.  0.
        -12    1    1    2    0    0 -0.16528760444E+02 -0.28125299645E+02 -0.31062535042E+02  0.45045682204E+02  0.00000000000E+00 0.  1.
         11    1    3    3    0    0  0.69331942130E+01  0.13689384440E+02  0.15495821925E+02  0.21808001415E+02  0.51100000000E-03 0. -1.
        -11    1    3    3    0    0 -0.68902987730E+00  0.39679367076E+01  0.32166035262E+01  0.51542043415E+01  0.51100000000E-03 0.  1.
        -12    1    3    3    0    0  0.10284596108E+02  0.10467978497E+02  0.12350109592E+02  0.19180112040E+02  0.00000000000E+00 0.  1.
</event>
<event>
 7    1  0.4119299E-008  0.4614232E+02  0.7816164E-02  0.1320468E+00
        -11   -1    0    0    0    0  0.00000000000E+00  0.00000000000E+00  0.45593999997E+02  0.45594000000E+02  0.51100000000E-03 0. -1.
         11   -1    0    0    0    0 -0.00000000000E+00 -0.00000000000E+00 -0.45593999997E+02  0.45594000000E+02  0.51100000000E-03 0.  1.
    9900012    2    1    2    0    0 -0.23866879279E+02 -0.20587147705E+02  0.32181596173E+02  0.46142315307E+02  0.99999776253E+01 0.  0.
        -12    1    1    2    0    0  0.23866879279E+02  0.20587147705E+02 -0.32181596173E+02  0.45045684693E+02  0.00000000000E+00 0.  1.
         11    1    3    3    0    0 -0.91391549773E+01 -0.50863332594E+01  0.79241853590E+01  0.13122029324E+02  0.51100000000E-03 0. -1.
        -11    1    3    3    0    0 -0.23338475872E+01 -0.58167635963E+01  0.42587669845E+01  0.75775114506E+01  0.51100000000E-03 0.  1.
        -12    1    3    3    0    0 -0.12393876714E+02 -0.96840508498E+01  0.19998643830E+02  0.25442774532E+02  0.00000000000E+00 0.  1.
</event>
<event>
 7    1  0.4119299E-008  0.4614232E+02  0.7816164E-02  0.1320468E+00
        -11   -1    0    0    0    0  0.00000000000E+00  0.00000000000E+00  0.45593999997E+02  0.45594000000E+02  0.51100000000E-03 0.  1.
         11   -1    0    0    0    0 -0.00000000000E+00 -0.00000000000E+00 -0.45593999997E+02  0.45594000000E+02  0.51100000000E-03 0. -1.
    9900012    2    1    2    0    0  0.23912091903E+02 -0.31777570140E+02 -0.21154465270E+02  0.46142317587E+02  0.99999984139E+01 0.  0.
        -12    1    1    2    0    0 -0.23912091903E+02  0.31777570140E+02  0.21154465270E+02  0.45045682413E+02  0.00000000000E+00 0.  1.
         11    1    3    3    0    0  0.10781887873E+02 -0.86699001721E+01 -0.84834488955E+01  0.16229146019E+02  0.51100000000E-03 0. -1.
        -11    1    3    3    0    0  0.26795346890E+01 -0.46607381475E+01 -0.34085990828E+00  0.53868888950E+01  0.51100000000E-03 0.  1.
         12    1    3    3    0    0  0.10450669341E+02 -0.18446931820E+02 -0.12330156466E+02  0.24526282673E+02  0.00000000000E+00 0. -1.
</event>
<event>
 7    1  0.4119299E-008  0.4614231E+02  0.7816164E-02  0.1320468E+00
        -11   -1    0    0    0    0  0.00000000000E+00  0.00000000000E+00  0.45593999997E+02  0.45594000000E+02  0.51100000000E-03 0. -1.
         11   -1    0    0    0    0 -0.00000000000E+00 -0.00000000000E+00 -0.45593999997E+02  0.45594000000E+02  0.51100000000E-03 0.  1.
    9900012    2    1    2    0    0  0.42344066523E+02 -0.15214399217E+02  0.21485174358E+01  0.46142311634E+02  0.99999441258E+01 0.  0.
        -12    1    1    2    0    0 -0.42344066523E+02  0.15214399217E+02 -0.21485174358E+01  0.45045688366E+02  0.00000000000E+00 0.  1.
         11    1    3    3    0    0  0.44252055724E+01 -0.23925688788E+01  0.90309371166E+00  0.51110085806E+01  0.51100000000E-03 0. -1.
        -11    1    3    3    0    0  0.35211636105E+02 -0.90269210318E+01  0.11684952149E+01  0.36369080299E+02  0.51100000000E-03 0.  1.
         12    1    3    3    0    0  0.27072248454E+01 -0.37949093069E+01  0.76928509217E-01  0.46622227538E+01  0.00000000000E+00 0. -1.
</event>
<event>
 7    1  0.4119299E-008  0.4614232E+02  0.7816164E-02  0.1320468E+00
        -11   -1    0    0    0    0  0.00000000000E+00  0.00000000000E+00  0.45593999997E+02  0.45594000000E+02  0.51100000000E-03 0. -1.
         11   -1    0    0    0    0 -0.00000000000E+00 -0.00000000000E+00 -0.45593999997E+02  0.45594000000E+02  0.51100000000E-03 0.  1.
    9900012    2    1    2    0    0 -0.13345414835E+02 -0.40955127460E+02  0.13179185574E+02  0.46142317690E+02  0.99999993500E+01 0.  0.
        -12    1    1    2    0    0  0.13345414835E+02  0.40955127460E+02 -0.13179185574E+02  0.45045682310E+02  0.00000000000E+00 0.  1.
         11    1    3    3    0    0 -0.92949704967E+01 -0.25651409874E+02  0.50892022308E+01  0.27754121940E+02  0.51100000000E-03 0. -1.
        -11    1    3    3    0    0  0.10266065895E+01 -0.26819027256E+01  0.18868236717E+01  0.34360772908E+01  0.51100000000E-03 0.  1.
         12    1    3    3    0    0 -0.50770509282E+01 -0.12621814860E+02  0.62031596716E+01  0.14952118459E+02  0.00000000000E+00 0. -1.
</event>
<event>
 7    1  0.4119299E-008  0.4614232E+02  0.7816164E-02  0.1320468E+00
        -11   -1    0    0    0    0  0.00000000000E+00  0.00000000000E+00  0.45593999997E+02  0.45594000000E+02  0.51100000000E-03 0.  1.
         11   -1    0    0    0    0 -0.00000000000E+00 -0.00000000000E+00 -0.45593999997E+02  0.45594000000E+02  0.51100000000E-03 0. -1.
    9900012    2    1    2    0    0  0.21384385153E+02  0.22846356957E+02 -0.32401624821E+02  0.46142320456E+02  0.10000024570E+02 0.  0.
        -12    1    1    2    0    0 -0.21384385153E+02 -0.22846356957E+02  0.32401624821E+02  0.45045679544E+02  0.00000000000E+00 0.  1.
         11    1    3    3    0    0  0.11415301110E+02  0.15272300864E+02 -0.25081880730E+02  0.31506396403E+02  0.51100000000E-03 0. -1.
        -11    1    3    3    0    0  0.48686724268E+01  0.28412595595E+01 -0.40920809085E+01  0.69657629522E+01  0.51100000000E-03 0.  1.
         12    1    3    3    0    0  0.51004116156E+01  0.47327965337E+01 -0.32276631830E+01  0.76701611000E+01  0.00000000000E+00 0. -1.
</event>
<event>
 7    1  0.4119299E-008  0.4614232E+02  0.7816164E-02  0.1320468E+00
        -11   -1    0    0    0    0  0.00000000000E+00  0.00000000000E+00  0.45593999997E+02  0.45594000000E+02  0.51100000000E-03 0. -1.
         11   -1    0    0    0    0 -0.00000000000E+00 -0.00000000000E+00 -0.45593999997E+02  0.45594000000E+02  0.51100000000E-03 0.  1.
    9900012    2    1    2    0    0  0.38787991900E+02  0.11942130068E+02  0.19544582394E+02  0.46142317775E+02  0.10000000126E+02 0.  0.
        -12    1    1    2    0    0 -0.38787991900E+02 -0.11942130068E+02 -0.19544582394E+02  0.45045682225E+02  0.00000000000E+00 0.  1.
         11    1    3    3    0    0  0.16596990750E+02  0.47653828071E+01  0.78931103234E+01  0.18986051882E+02  0.51100000000E-03 0. -1.
        -11    1    3    3    0    0  0.93006166440E+01  0.69860613005E+01  0.58206853644E+01  0.13007186507E+02  0.51100000000E-03 0.  1.
         12    1    3    3    0    0  0.12890384506E+02  0.19068596034E+00  0.58307867058E+01  0.14149079386E+02  0.00000000000E+00 0. -1.
</event>
<event>
 7    1  0.4119299E-008  0.4614232E+02  0.7816164E-02  0.1320468E+00
        -11   -1    0    0    0    0  0.00000000000E+00  0.00000000000E+00  0.45593999997E+02  0.45594000000E+02  0.51100000000E-03 0.  1.
         11   -1    0    0    0    0 -0.00000000000E+00 -0.00000000000E+00 -0.45593999997E+02  0.45594000000E+02  0.51100000000E-03 0. -1.
    9900012    2    1    2    0    0 -0.25183788753E+02 -0.37251005552E+02 -0.26931037620E+01  0.46142318315E+02  0.10000005051E+02 0.  0.
        -12    1    1    2    0    0  0.25183788753E+02  0.37251005552E+02  0.26931037620E+01  0.45045681685E+02  0.00000000000E+00 0.  1.
         11    1    3    3    0    0 -0.21883938917E+02 -0.31217382466E+02 -0.42697901620E+01  0.38362258260E+02  0.51100000000E-03 0. -1.
        -11    1    3    3    0    0 -0.19302288852E+01 -0.47498431696E+01 -0.28664702139E+00  0.51350716121E+01  0.51100000000E-03 0.  1.
        -12    1    3    3    0    0 -0.13696209512E+01 -0.12837799166E+01  0.18633334214E+01  0.26449884430E+01  0.00000000000E+00 0.  1.
</event>
<event>
 7    1  0.4119299E-008  0.4614232E+02  0.7816164E-02  0.1320468E+00
        -11   -1    0    0    0    0  0.00000000000E+00  0.00000000000E+00  0.45593999997E+02  0.45594000000E+02  0.51100000000E-03 0. -1.
         11   -1    0    0    0    0 -0.00000000000E+00 -0.00000000000E+00 -0.45593999997E+02  0.45594000000E+02  0.51100000000E-03 0.  1.
    9900012    2    1    2    0    0  0.17103333894E+02  0.41672222538E+02  0.12453688186E+00  0.46142315734E+02  0.99999815164E+01 0.  0.
        -12    1    1    2    0    0 -0.17103333894E+02 -0.41672222538E+02 -0.12453688186E+00  0.45045684266E+02  0.00000000000E+00 0.  1.
         11    1    3    3    0    0  0.33115645295E+01  0.59831536502E+01 -0.23683722669E+01  0.72369727574E+01  0.51100000000E-03 0. -1.
        -11    1    3    3    0    0  0.51011848214E+01  0.12754956667E+02 -0.22647508807E+01  0.13922647125E+02  0.51100000000E-03 0.  1.
         12    1    3    3    0    0  0.86905845430E+01  0.22934112221E+02  0.47576600295E+01  0.24982695852E+02  0.00000000000E+00 0. -1.
</event>
<event>
 7    1  0.4119299E-008  0.4614232E+02  0.7816164E-02  0.1320468E+00
        -11   -1    0    0    0    0  0.00000000000E+00  0.00000000000E+00  0.45593999997E+02  0.45594000000E+02  0.51100000000E-03 0.  1.
         11   -1    0    0    0    0 -0.00000000000E+00 -0.00000000000E+00 -0.45593999997E+02  0.45594000000E+02  0.51100000000E-03 0. -1.
    9900012    2    1    2    0    0 -0.20571145793E+02  0.12744935488E+02 -0.37993526184E+02  0.46142318167E+02  0.10000003705E+02 0.  0.
        -12    1    1    2    0    0  0.20571145793E+02 -0.12744935488E+02  0.37993526184E+02  0.45045681833E+02  0.00000000000E+00 0.  1.
         11    1    3    3    0    0 -0.20767909125E+01  0.18729818593E+00 -0.57083721262E+00  0.21619427580E+01  0.51100000000E-03 0.  1.
        -11    1    3    3    0    0 -0.42453802793E+01  0.80229838492E+00 -0.10251011704E+02  0.11124305715E+02  0.51100000000E-03 0. -1.
        -12    1    3    3    0    0 -0.14248974601E+02  0.11755338917E+02 -0.27171677267E+02  0.32856069695E+02  0.00000000000E+00 0.  1.
</event>
<event>
 7    1  0.4119299E-008  0.4614232E+02  0.7816164E-02  0.1320468E+00
        -11   -1    0    0    0    0  0.00000000000E+00  0.00000000000E+00  0.45593999997E+02  0.45594000000E+02  0.51100000000E-03 0.  1.
         11   -1    0    0    0    0 -0.00000000000E+00 -0.00000000000E+00 -0.45593999997E+02  0.45594000000E+02  0.51100000000E-03 0. -1.
    9900012    2    1    2    0    0  0.44219534383E+02  0.57032565695E+01 -0.64202027060E+01  0.46142319193E+02  0.10000013061E+02 0.  0.
        -12    1    1    2    0    0 -0.44219534383E+02 -0.57032565695E+01  0.64202027060E+01  0.45045680807E+02  0.00000000000E+00 0.  1.
         11    1    3    3    0    0  0.24837084983E+02  0.43774469631E+01 -0.36298355821E+01  0.25479767247E+02  0.51100000000E-03 0. -1.
        -11    1    3    3    0    0  0.18108420802E+02 -0.63168583361E+00 -0.21920207548E+01  0.18251544761E+02  0.51100000000E-03 0.  1.
        -12    1    3    3    0    0  0.12740285981E+01  0.19574954400E+01 -0.59834636909E+00  0.24110071845E+01  0.00000000000E+00 0.  1.
</event>
<event>
 7    1  0.4119299E-008  0.4614232E+02  0.7816164E-02  0.1320468E+00
        -11   -1    0    0    0    0  0.00000000000E+00  0.00000000000E+00  0.45593999997E+02  0.45594000000E+02  0.51100000000E-03 0.  1.
         11   -1    0    0    0    0 -0.00000000000E+00 -0.00000000000E+00 -0.45593999997E+02  0.45594000000E+02  0.51100000000E-03 0. -1.
    9900012    2    1    2    0    0 -0.36776069390E+02 -0.25952564439E+02  0.17602687515E+01  0.46142318444E+02  0.10000006228E+02 0.  0.
        -12    1    1    2    0    0  0.36776069390E+02  0.25952564439E+02 -0.17602687515E+01  0.45045681556E+02  0.00000000000E+00 0.  1.
         11    1    3    3    0    0 -0.25839653052E+02 -0.17567461854E+02  0.15775789669E+01  0.31285653925E+02  0.51100000000E-03 0. -1.
        -11    1    3    3    0    0 -0.71957641190E+01 -0.66244164629E+01 -0.22820755977E+01  0.10043395045E+02  0.51100000000E-03 0.  1.
         12    1    3    3    0    0 -0.37406522192E+01 -0.17606861224E+01  0.24647653823E+01  0.48132694747E+01  0.00000000000E+00 0. -1.
</event>
<event>
 7    1  0.4119299E-008  0.4614232E+02  0.7816164E-02  0.1320468E+00
        -11   -1    0    0    0    0  0.00000000000E+00  0.00000000000E+00  0.45593999997E+02  0.45594000000E+02  0.51100000000E-03 0.  1.
         11   -1    0    0    0    0 -0.00000000000E+00 -0.00000000000E+00 -0.45593999997E+02  0.45594000000E+02  0.51100000000E-03 0. -1.
    9900012    2    1    2    0    0 -0.21703370904E+02 -0.25424569862E+01 -0.39390521010E+02  0.46142317171E+02  0.99999946181E+01 0.  0.
        -12    1    1    2    0    0  0.21703370904E+02  0.25424569862E+01  0.39390521010E+02  0.45045682829E+02  0.00000000000E+00 0.  1.
         11    1    3    3    0    0 -0.22066844739E+01 -0.14681636824E+01 -0.19789064391E+01  0.33077230721E+01  0.51100000000E-03 0. -1.
        -11    1    3    3    0    0 -0.12791807149E+02  0.64885726270E+00 -0.30367723127E+02  0.32958306299E+02  0.51100000000E-03 0.  1.
         12    1    3    3    0    0 -0.67048792805E+01 -0.17231505665E+01 -0.70438914433E+01  0.98762877999E+01  0.00000000000E+00 0. -1.
</event>
<event>
 7    1  0.4119299E-008  0.4614232E+02  0.7816164E-02  0.1320468E+00
        -11   -1    0    0    0    0  0.00000000000E+00  0.00000000000E+00  0.45593999997E+02  0.45594000000E+02  0.51100000000E-03 0.  1.
         11   -1    0    0    0    0 -0.00000000000E+00 -0.00000000000E+00 -0.45593999997E+02  0.45594000000E+02  0.51100000000E-03 0. -1.
    9900012    2    1    2    0    0  0.20943221884E+02  0.14493050731E+02 -0.37154359821E+02  0.46142317454E+02  0.99999971986E+01 0.  0.
        -12    1    1    2    0    0 -0.20943221884E+02 -0.14493050731E+02  0.37154359821E+02  0.45045682546E+02  0.00000000000E+00 0.  1.
         11    1    3    3    0    0  0.22447691061E+01  0.45945700589E+00 -0.31141427265E+01  0.38662610184E+01  0.51100000000E-03 0. -1.
        -11    1    3    3    0    0  0.69437344590E+01  0.10646838262E+02 -0.19463831540E+02  0.23246749272E+02  0.51100000000E-03 0.  1.
        -12    1    3    3    0    0  0.11754718319E+02  0.33867554631E+01 -0.14576385554E+02  0.19029307164E+02  0.00000000000E+00 0.  1.
</event>
<event>
 7    1  0.4119299E-008  0.4614232E+02  0.7816164E-02  0.1320468E+00
        -11   -1    0    0    0    0  0.00000000000E+00  0.00000000000E+00  0.45593999997E+02  0.45594000000E+02  0.51100000000E-03 0. -1.
         11   -1    0    0    0    0 -0.00000000000E+00 -0.00000000000E+00 -0.45593999997E+02  0.45594000000E+02  0.51100000000E-03 0.  1.
    9900012    2    1    2    0    0  0.34807953535E+02 -0.27195152817E+02  0.88285646741E+01  0.46142317407E+02  0.99999967691E+01 0.  0.
        -12    1    1    2    0    0 -0.34807953535E+02  0.27195152817E+02 -0.88285646741E+01  0.45045682593E+02  0.00000000000E+00 0.  1.
         11    1    3    3    0    0  0.23351109280E+02 -0.17582252364E+02  0.69622919081E+01  0.30048018431E+02  0.51100000000E-03 0. -1.
        -11    1    3    3    0    0  0.88747170795E+00 -0.33836725965E+01  0.15384297027E+01  0.38214673208E+01  0.51100000000E-03 0.  1.
         12    1    3    3    0    0  0.10569372548E+02 -0.62292278570E+01  0.32784306343E+00  0.12272831655E+02  0.00000000000E+00 0. -1.
</event>
<event>
 7    1  0.4119299E-008  0.4614232E+02  0.7816164E-02  0.1320468E+00
        -11   -1    0    0    0    0  0.00000000000E+00  0.00000000000E+00  0.45593999997E+02  0.45594000000E+02  0.51100000000E-03 0.  1.
         11   -1    0    0    0    0 -0.00000000000E+00 -0.00000000000E+00 -0.45593999997E+02  0.45594000000E+02  0.51100000000E-03 0. -1.
    9900012    2    1    2    0    0 -0.21480601661E+02  0.35307787641E+02 -0.17918075666E+02  0.46142317062E+02  0.99999936205E+01 0.  0.
        -12    1    1    2    0    0  0.21480601661E+02 -0.35307787641E+02  0.17918075666E+02  0.45045682938E+02  0.00000000000E+00 0.  1.
         11    1    3    3    0    0 -0.53029688171E+01  0.61591311762E+01 -0.47816912632E+01  0.94297903857E+01  0.51100000000E-03 0. -1.
        -11    1    3    3    0    0 -0.14388123026E+02  0.29131780510E+02 -0.12386408777E+02  0.34772141759E+02  0.51100000000E-03 0.  1.
        -12    1    3    3    0    0 -0.17895098178E+01  0.16875955491E-01 -0.74997562548E+00  0.19403849166E+01  0.00000000000E+00 0.  1.
</event>
<event>
 7    1  0.4119299E-008  0.4614232E+02  0.7816164E-02  0.1320468E+00
        -11   -1    0    0    0    0  0.00000000000E+00  0.00000000000E+00  0.45593999997E+02  0.45594000000E+02  0.51100000000E-03 0.  1.
         11   -1    0    0    0    0 -0.00000000000E+00 -0.00000000000E+00 -0.45593999997E+02  0.45594000000E+02  0.51100000000E-03 0. -1.
    9900012    2    1    2    0    0  0.11202012363E+02  0.24200648229E+02 -0.36303676365E+02  0.46142319039E+02  0.10000011652E+02 0.  0.
        -12    1    1    2    0    0 -0.11202012363E+02 -0.24200648229E+02  0.36303676365E+02  0.45045680961E+02  0.00000000000E+00 0.  1.
         11    1    3    3    0    0  0.52537263821E+01  0.10767006328E+02 -0.11802370107E+02  0.16817431628E+02  0.51100000000E-03 0. -1.
        -11    1    3    3    0    0  0.53265701271E+01  0.70231584200E+01 -0.18628851361E+02  0.20609007904E+02  0.51100000000E-03 0.  1.
        -12    1    3    3    0    0  0.62171585335E+00  0.64104834801E+01 -0.58724548970E+01  0.87158795063E+01  0.00000000000E+00 0.  1.
</event>
<event>
 7    1  0.4119299E-008  0.4614233E+02  0.7816164E-02  0.1320468E+00
        -11   -1    0    0    0    0  0.00000000000E+00  0.00000000000E+00  0.45593999997E+02  0.45594000000E+02  0.51100000000E-03 0.  1.
         11   -1    0    0    0    0 -0.00000000000E+00 -0.00000000000E+00 -0.45593999997E+02  0.45594000000E+02  0.51100000000E-03 0. -1.
    9900012    2    1    2    0    0 -0.27316357598E+02  0.29556831179E+02 -0.20231733694E+02  0.46142326400E+02  0.10000078780E+02 0.  0.
        -12    1    1    2    0    0  0.27316357598E+02 -0.29556831179E+02  0.20231733694E+02  0.45045673600E+02  0.00000000000E+00 0.  1.
         11    1    3    3    0    0 -0.56726255522E+01  0.37764135783E+01 -0.65637282144E+01  0.94616335008E+01  0.51100000000E-03 0. -1.
        -11    1    3    3    0    0 -0.39690243282E+01  0.79028176324E+01 -0.44898674349E+01  0.99179932695E+01  0.51100000000E-03 0.  1.
        -12    1    3    3    0    0 -0.17674707717E+02  0.17877599968E+02 -0.91781380451E+01  0.26762699630E+02  0.00000000000E+00 0.  1.
</event>
<event>
 7    1  0.4119299E-008  0.4614232E+02  0.7816164E-02  0.1320468E+00
        -11   -1    0    0    0    0  0.00000000000E+00  0.00000000000E+00  0.45593999997E+02  0.45594000000E+02  0.51100000000E-03 0.  1.
         11   -1    0    0    0    0 -0.00000000000E+00 -0.00000000000E+00 -0.45593999997E+02  0.45594000000E+02  0.51100000000E-03 0. -1.
    9900012    2    1    2    0    0  0.12060277415E+02 -0.40043078401E+02 -0.16739625608E+02  0.46142317803E+02  0.10000000379E+02 0.  0.
        -12    1    1    2    0    0 -0.12060277415E+02  0.40043078401E+02  0.16739625608E+02  0.45045682197E+02  0.00000000000E+00 0.  1.
         11    1    3    3    0    0  0.10256450115E+02 -0.28899174801E+02 -0.14913955099E+02  0.34099606011E+02  0.51100000000E-03 0.  1.
        -11    1    3    3    0    0  0.27266948270E+01 -0.54525168528E+01 -0.14402898292E+01  0.62641232238E+01  0.51100000000E-03 0. -1.
        -12    1    3    3    0    0 -0.92286752640E+00 -0.56913867467E+01 -0.38538067983E+00  0.57785885682E+01  0.00000000000E+00 0.  1.
</event>
<event>
 7    1  0.4119299E-008  0.4614232E+02  0.7816164E-02  0.1320468E+00
        -11   -1    0    0    0    0  0.00000000000E+00  0.00000000000E+00  0.45593999997E+02  0.45594000000E+02  0.51100000000E-03 0.  1.
         11   -1    0    0    0    0 -0.00000000000E+00 -0.00000000000E+00 -0.45593999997E+02  0.45594000000E+02  0.51100000000E-03 0. -1.
    9900012    2    1    2    0    0 -0.35857225148E+02 -0.26876582778E+02  0.45849970465E+01  0.46142317687E+02  0.99999993245E+01 0.  0.
        -12    1    1    2    0    0  0.35857225148E+02  0.26876582778E+02 -0.45849970465E+01  0.45045682313E+02  0.00000000000E+00 0.  1.
         11    1    3    3    0    0 -0.10649690678E+02 -0.87791623143E+01  0.50376241882E+00  0.13810987630E+02  0.51100000000E-03 0. -1.
        -11    1    3    3    0    0 -0.23547124352E+02 -0.13552610361E+02  0.27181144730E+01  0.27304367039E+02  0.51100000000E-03 0.  1.
        -12    1    3    3    0    0 -0.16604101173E+01 -0.45448101024E+01  0.13631201547E+01  0.50269630176E+01  0.00000000000E+00 0.  1.
</event>
<event>
 7    1  0.4119299E-008  0.4614232E+02  0.7816164E-02  0.1320468E+00
        -11   -1    0    0    0    0  0.00000000000E+00  0.00000000000E+00  0.45593999997E+02  0.45594000000E+02  0.51100000000E-03 0.  1.
         11   -1    0    0    0    0 -0.00000000000E+00 -0.00000000000E+00 -0.45593999997E+02  0.45594000000E+02  0.51100000000E-03 0. -1.
    9900012    2    1    2    0    0  0.27026934479E+02  0.16055355263E+02 -0.32262732073E+02  0.46142317623E+02  0.99999987439E+01 0.  0.
        -12    1    1    2    0    0 -0.27026934479E+02 -0.16055355263E+02  0.32262732073E+02  0.45045682377E+02  0.00000000000E+00 0.  1.
         11    1    3    3    0    0  0.11981995607E+01  0.30849408096E+01 -0.38890752178E+01  0.51066082968E+01  0.51100000000E-03 0. -1.
        -11    1    3    3    0    0  0.21204060323E+01 -0.75064771065E+00 -0.19834265062E+01  0.29989289245E+01  0.51100000000E-03 0.  1.
        -12    1    3    3    0    0  0.23708328886E+02  0.13721062164E+02 -0.26390230349E+02  0.38036780402E+02  0.00000000000E+00 0.  1.
</event>
<event>
 7    1  0.4119299E-008  0.4614231E+02  0.7816164E-02  0.1320468E+00
        -11   -1    0    0    0    0  0.00000000000E+00  0.00000000000E+00  0.45593999997E+02  0.45594000000E+02  0.51100000000E-03 0.  1.
         11   -1    0    0    0    0 -0.00000000000E+00 -0.00000000000E+00 -0.45593999997E+02  0.45594000000E+02  0.51100000000E-03 0. -1.
    9900012    2    1    2    0    0  0.23520682166E+02  0.36495559753E+02 -0.11998556949E+02  0.46142314967E+02  0.99999745221E+01 0.  0.
        -12    1    1    2    0    0 -0.23520682166E+02 -0.36495559753E+02  0.11998556949E+02  0.45045685033E+02  0.00000000000E+00 0.  1.
         11    1    3    3    0    0  0.53819826489E+01  0.56822480726E+01 -0.48903202114E+01  0.92287004731E+01  0.51100000000E-03 0. -1.
        -11    1    3    3    0    0  0.55064159387E+01  0.14841957224E+02 -0.23759296047E+01  0.16007790368E+02  0.51100000000E-03 0.  1.
         12    1    3    3    0    0  0.12632283579E+02  0.15971354456E+02 -0.47323071326E+01  0.20905824126E+02  0.00000000000E+00 0. -1.
</event>
<event>
 7    1  0.4119299E-008  0.4614232E+02  0.7816164E-02  0.1320468E+00
        -11   -1    0    0    0    0  0.00000000000E+00  0.00000000000E+00  0.45593999997E+02  0.45594000000E+02  0.51100000000E-03 0.  1.
         11   -1    0    0    0    0 -0.00000000000E+00 -0.00000000000E+00 -0.45593999997E+02  0.45594000000E+02  0.51100000000E-03 0. -1.
    9900012    2    1    2    0    0 -0.21675001284E+02 -0.22443447079E+02 -0.32489988839E+02  0.46142319050E+02  0.10000011752E+02 0.  0.
        -12    1    1    2    0    0  0.21675001284E+02  0.22443447079E+02  0.32489988839E+02  0.45045680950E+02  0.00000000000E+00 0.  1.
         11    1    3    3    0    0 -0.70262660184E+01 -0.39750071575E+01 -0.56950362099E+01  0.98793994633E+01  0.51100000000E-03 0. -1.
        -11    1    3    3    0    0 -0.26152986399E+01 -0.72240100576E+01 -0.11198145514E+02  0.13580300862E+02  0.51100000000E-03 0.  1.
        -12    1    3    3    0    0 -0.12033436626E+02 -0.11244429864E+02 -0.15596807116E+02  0.22682618725E+02  0.00000000000E+00 0.  1.
</event>
<event>
 7    1  0.4119299E-008  0.4614232E+02  0.7816164E-02  0.1320468E+00
        -11   -1    0    0    0    0  0.00000000000E+00  0.00000000000E+00  0.45593999997E+02  0.45594000000E+02  0.51100000000E-03 0.  1.
         11   -1    0    0    0    0 -0.00000000000E+00 -0.00000000000E+00 -0.45593999997E+02  0.45594000000E+02  0.51100000000E-03 0. -1.
    9900012    2    1    2    0    0 -0.98757972296E+01  0.17779134947E+02 -0.40193086149E+02  0.46142321133E+02  0.10000030746E+02 0.  0.
        -12    1    1    2    0    0  0.98757972296E+01 -0.17779134947E+02  0.40193086149E+02  0.45045678867E+02  0.00000000000E+00 0.  1.
         11    1    3    3    0    0 -0.20629920577E-01  0.58367726345E+01 -0.14946935082E+02  0.16046158699E+02  0.51100000000E-03 0. -1.
        -11    1    3    3    0    0 -0.42805608960E+01  0.29457700224E+01 -0.48039127284E+01  0.70766051446E+01  0.51100000000E-03 0.  1.
         12    1    3    3    0    0 -0.55746064130E+01  0.89965922902E+01 -0.20442238339E+02  0.23019557290E+02  0.00000000000E+00 0. -1.
</event>
<event>
 7    1  0.4119299E-008  0.4614232E+02  0.7816164E-02  0.1320468E+00
        -11   -1    0    0    0    0  0.00000000000E+00  0.00000000000E+00  0.45593999997E+02  0.45594000000E+02  0.51100000000E-03 0.  1.
         11   -1    0    0    0    0 -0.00000000000E+00 -0.00000000000E+00 -0.45593999997E+02  0.45594000000E+02  0.51100000000E-03 0. -1.
    9900012    2    1    2    0    0 -0.31452123798E+02  0.15404752935E+02 -0.28329684361E+02  0.46142317405E+02  0.99999967568E+01 0.  0.
        -12    1    1    2    0    0  0.31452123798E+02 -0.15404752935E+02  0.28329684361E+02  0.45045682595E+02  0.00000000000E+00 0.  1.
         11    1    3    3    0    0 -0.19988678719E+02  0.97622201697E+01 -0.19757128814E+02  0.29752182421E+02  0.51100000000E-03 0. -1.
        -11    1    3    3    0    0 -0.76833943513E+01  0.26814453594E+01 -0.82333955683E+01  0.11576420035E+02  0.51100000000E-03 0.  1.
         12    1    3    3    0    0 -0.37800507280E+01  0.29610874054E+01 -0.33915997922E+00  0.48137149501E+01  0.00000000000E+00 0. -1.
</event>
<event>
 7    1  0.4119299E-008  0.4614232E+02  0.7816164E-02  0.1320468E+00
        -11   -1    0    0    0    0  0.00000000000E+00  0.00000000000E+00  0.45593999997E+02  0.45594000000E+02  0.51100000000E-03 0. -1.
         11   -1    0    0    0    0 -0.00000000000E+00 -0.00000000000E+00 -0.45593999997E+02  0.45594000000E+02  0.51100000000E-03 0.  1.
    9900012    2    1    2    0    0 -0.36373925670E+02  0.88450600786E+01  0.25056259554E+02  0.46142315420E+02  0.99999786495E+01 0.  0.
        -12    1    1    2    0    0  0.36373925670E+02 -0.88450600786E+01 -0.25056259554E+02  0.45045684580E+02  0.00000000000E+00 0.  1.
         11    1    3    3    0    0 -0.19744004926E+01  0.37067740685E+00 -0.33720448850E+00  0.20369993062E+01  0.51100000000E-03 0. -1.
        -11    1    3    3    0    0 -0.11463334957E+02  0.10196348865E+00  0.60971755806E+01  0.12984375042E+02  0.51100000000E-03 0.  1.
         12    1    3    3    0    0 -0.22936190220E+02  0.83724191831E+01  0.19296288462E+02  0.31120941072E+02  0.00000000000E+00 0. -1.
</event>
<event>
 7    1  0.4119299E-008  0.4614232E+02  0.7816164E-02  0.1320468E+00
        -11   -1    0    0    0    0  0.00000000000E+00  0.00000000000E+00  0.45593999997E+02  0.45594000000E+02  0.51100000000E-03 0.  1.
         11   -1    0    0    0    0 -0.00000000000E+00 -0.00000000000E+00 -0.45593999997E+02  0.45594000000E+02  0.51100000000E-03 0. -1.
    9900012    2    1    2    0    0 -0.26872266182E+02  0.74817820153E+01 -0.35369730029E+02  0.46142317030E+02  0.99999933308E+01 0.  0.
        -12    1    1    2    0    0  0.26872266182E+02 -0.74817820153E+01  0.35369730029E+02  0.45045682970E+02  0.00000000000E+00 0.  1.
         11    1    3    3    0    0 -0.19342328258E+01  0.68055569498E+00 -0.54079181896E+01  0.57835968121E+01  0.51100000000E-03 0. -1.
        -11    1    3    3    0    0 -0.79641760539E+01  0.43737962382E+00 -0.46742922831E+01  0.92449126421E+01  0.51100000000E-03 0.  1.
        -12    1    3    3    0    0 -0.16973857303E+02  0.63638466965E+01 -0.25287519557E+02  0.31113807575E+02  0.00000000000E+00 0.  1.
</event>
<event>
 7    1  0.4119299E-008  0.4614232E+02  0.7816164E-02  0.1320468E+00
        -11   -1    0    0    0    0  0.00000000000E+00  0.00000000000E+00  0.45593999997E+02  0.45594000000E+02  0.51100000000E-03 0.  1.
         11   -1    0    0    0    0 -0.00000000000E+00 -0.00000000000E+00 -0.45593999997E+02  0.45594000000E+02  0.51100000000E-03 0. -1.
    9900012    2    1    2    0    0 -0.28961550239E+02  0.52703327739E+01 -0.34096417422E+02  0.46142317845E+02  0.10000000767E+02 0.  0.
        -12    1    1    2    0    0  0.28961550239E+02 -0.52703327739E+01  0.34096417422E+02  0.45045682155E+02  0.00000000000E+00 0.  1.
         11    1    3    3    0    0 -0.12794360775E+02  0.34953473491E+00 -0.15932940629E+02  0.20437133839E+02  0.51100000000E-03 0. -1.
        -11    1    3    3    0    0 -0.10745508447E+02  0.62534263633E+01 -0.14109272029E+02  0.18805394187E+02  0.51100000000E-03 0.  1.
        -12    1    3    3    0    0 -0.54216810162E+01 -0.13326283243E+01 -0.40542047639E+01  0.68997898199E+01  0.00000000000E+00 0.  1.
</event>
<event>
 7    1  0.4119299E-008  0.4614232E+02  0.7816164E-02  0.1320468E+00
        -11   -1    0    0    0    0  0.00000000000E+00  0.00000000000E+00  0.45593999997E+02  0.45594000000E+02  0.51100000000E-03 0.  1.
         11   -1    0    0    0    0 -0.00000000000E+00 -0.00000000000E+00 -0.45593999997E+02  0.45594000000E+02  0.51100000000E-03 0. -1.
    9900012    2    1    2    0    0 -0.39127765770E+01 -0.44826719776E+02  0.20901742891E+01  0.46142318132E+02  0.10000003381E+02 0.  0.
        -12    1    1    2    0    0  0.39127765770E+01  0.44826719776E+02 -0.20901742891E+01  0.45045681868E+02  0.00000000000E+00 0.  1.
         11    1    3    3    0    0 -0.65915548301E+00 -0.13235762775E+02 -0.27165211187E+01  0.13527726691E+02  0.51100000000E-03 0. -1.
        -11    1    3    3    0    0 -0.24263548489E+01 -0.46496579929E+01  0.15229278814E+01  0.54613026740E+01  0.51100000000E-03 0.  1.
         12    1    3    3    0    0 -0.82726624509E+00 -0.26941299008E+02  0.32837675263E+01  0.27153288767E+02  0.00000000000E+00 0. -1.
</event>
<event>
 7    1  0.4119299E-008  0.4614232E+02  0.7816164E-02  0.1320468E+00
        -11   -1    0    0    0    0  0.00000000000E+00  0.00000000000E+00  0.45593999997E+02  0.45594000000E+02  0.51100000000E-03 0.  1.
         11   -1    0    0    0    0 -0.00000000000E+00 -0.00000000000E+00 -0.45593999997E+02  0.45594000000E+02  0.51100000000E-03 0. -1.
    9900012    2    1    2    0    0 -0.10119083335E+02 -0.25484540128E+02 -0.35738717127E+02  0.46142317244E+02  0.99999952850E+01 0.  0.
        -12    1    1    2    0    0  0.10119083335E+02  0.25484540128E+02  0.35738717127E+02  0.45045682756E+02  0.00000000000E+00 0.  1.
         11    1    3    3    0    0 -0.61220011214E+01 -0.10925571083E+02 -0.14707334113E+02  0.19317160200E+02  0.51100000000E-03 0. -1.
        -11    1    3    3    0    0 -0.44424567697E+01 -0.14859447205E+02 -0.21195117870E+02  0.26263503482E+02  0.51100000000E-03 0.  1.
        -12    1    3    3    0    0  0.44537455634E+00  0.30047815962E+00  0.16373485652E+00  0.56165356145E+00  0.00000000000E+00 0.  1.
</event>
<event>
 7    1  0.4119299E-008  0.4614232E+02  0.7816164E-02  0.1320468E+00
        -11   -1    0    0    0    0  0.00000000000E+00  0.00000000000E+00  0.45593999997E+02  0.45594000000E+02  0.51100000000E-03 0.  1.
         11   -1    0    0    0    0 -0.00000000000E+00 -0.00000000000E+00 -0.45593999997E+02  0.45594000000E+02  0.51100000000E-03 0. -1.
    9900012    2    1    2    0    0  0.41155737307E+02  0.10105029047E+02  0.15271121664E+02  0.46142317830E+02  0.10000000625E+02 0.  0.
        -12    1    1    2    0    0 -0.41155737307E+02 -0.10105029047E+02 -0.15271121664E+02  0.45045682170E+02  0.00000000000E+00 0.  1.
         11    1    3    3    0    0  0.11202996098E+02 -0.44962399262E+00  0.46175213442E+01  0.12125625218E+02  0.51100000000E-03 0. -1.
        -11    1    3    3    0    0  0.26712364138E+02  0.76739144407E+01  0.10395338425E+02  0.29673261060E+02  0.51100000000E-03 0.  1.
        -12    1    3    3    0    0  0.32403770709E+01  0.28807385990E+01  0.25826189438E+00  0.43434315516E+01  0.00000000000E+00 0.  1.
</event>
<event>
 7    1  0.4119299E-008  0.4614232E+02  0.7816164E-02  0.1320468E+00
        -11   -1    0    0    0    0  0.00000000000E+00  0.00000000000E+00  0.45593999997E+02  0.45594000000E+02  0.51100000000E-03 0. -1.
         11   -1    0    0    0    0 -0.00000000000E+00 -0.00000000000E+00 -0.45593999997E+02  0.45594000000E+02  0.51100000000E-03 0.  1.
    9900012    2    1    2    0    0 -0.28308899178E+02 -0.34767745421E+02  0.43501254670E+01  0.46142317788E+02  0.10000000248E+02 0.  0.
        -12    1    1    2    0    0  0.28308899178E+02  0.34767745421E+02 -0.43501254670E+01  0.45045682212E+02  0.00000000000E+00 0.  1.
         11    1    3    3    0    0 -0.19276107115E+02 -0.27521895386E+02  0.28240910602E+01  0.33719408680E+02  0.51100000000E-03 0. -1.
        -11    1    3    3    0    0 -0.34761379247E+01 -0.16001432274E+01 -0.12551809809E+01  0.40273406580E+01  0.51100000000E-03 0.  1.
        -12    1    3    3    0    0 -0.55566541380E+01 -0.56457068077E+01  0.27812153876E+01  0.83955684501E+01  0.00000000000E+00 0.  1.
</event>
<event>
 7    1  0.4119299E-008  0.4614232E+02  0.7816164E-02  0.1320468E+00
        -11   -1    0    0    0    0  0.00000000000E+00  0.00000000000E+00  0.45593999997E+02  0.45594000000E+02  0.51100000000E-03 0.  1.
         11   -1    0    0    0    0 -0.00000000000E+00 -0.00000000000E+00 -0.45593999997E+02  0.45594000000E+02  0.51100000000E-03 0. -1.
    9900012    2    1    2    0    0 -0.25614852310E+02  0.79522042499E+01 -0.36190541563E+02  0.46142317522E+02  0.99999978181E+01 0.  0.
        -12    1    1    2    0    0  0.25614852310E+02 -0.79522042499E+01  0.36190541563E+02  0.45045682478E+02  0.00000000000E+00 0.  1.
         11    1    3    3    0    0 -0.86928603297E+01  0.13887710331E+01 -0.15605439206E+02  0.17917149293E+02  0.51100000000E-03 0. -1.
        -11    1    3    3    0    0  0.76016695868E-01  0.14075580875E+01 -0.25367693987E+01  0.29021022641E+01  0.51100000000E-03 0.  1.
        -12    1    3    3    0    0 -0.16998008676E+02  0.51558751293E+01 -0.18048332958E+02  0.25323065965E+02  0.00000000000E+00 0.  1.
</event>
<event>
 7    1  0.4119299E-008  0.4614232E+02  0.7816164E-02  0.1320468E+00
        -11   -1    0    0    0    0  0.00000000000E+00  0.00000000000E+00  0.45593999997E+02  0.45594000000E+02  0.51100000000E-03 0.  1.
         11   -1    0    0    0    0 -0.00000000000E+00 -0.00000000000E+00 -0.45593999997E+02  0.45594000000E+02  0.51100000000E-03 0. -1.
    9900012    2    1    2    0    0  0.41026555939E+01 -0.26077734654E+02  0.36499774470E+02  0.46142316922E+02  0.99999923439E+01 0.  0.
        -12    1    1    2    0    0 -0.41026555939E+01  0.26077734654E+02 -0.36499774470E+02  0.45045683078E+02  0.00000000000E+00 0.  1.
         11    1    3    3    0    0  0.58932519778E+01 -0.19942191770E+02  0.25250286799E+02  0.32710830242E+02  0.51100000000E-03 0. -1.
        -11    1    3    3    0    0  0.13400397203E+00 -0.14237948661E+01  0.58047268652E+01  0.59782943325E+01  0.51100000000E-03 0.  1.
         12    1    3    3    0    0 -0.19246003560E+01 -0.47117480184E+01  0.54447608061E+01  0.74531923466E+01  0.00000000000E+00 0. -1.
</event>
<event>
 7    1  0.4119299E-008  0.4614232E+02  0.7816164E-02  0.1320468E+00
        -11   -1    0    0    0    0  0.00000000000E+00  0.00000000000E+00  0.45593999997E+02  0.45594000000E+02  0.51100000000E-03 0. -1.
         11   -1    0    0    0    0 -0.00000000000E+00 -0.00000000000E+00 -0.45593999997E+02  0.45594000000E+02  0.51100000000E-03 0.  1.
    9900012    2    1    2    0    0 -0.42556150515E+01 -0.30919137744E+02  0.32480919769E+02  0.46142317772E+02  0.10000000103E+02 0.  0.
        -12    1    1    2    0    0  0.42556150515E+01  0.30919137744E+02 -0.32480919769E+02  0.45045682228E+02  0.00000000000E+00 0.  1.
         11    1    3    3    0    0 -0.24239815411E+01 -0.10542072518E+02  0.14529970280E+02  0.18114386992E+02  0.51100000000E-03 0. -1.
        -11    1    3    3    0    0 -0.17630864968E+01 -0.20256581709E+02  0.18482868789E+02  0.27478246222E+02  0.51100000000E-03 0.  1.
        -12    1    3    3    0    0 -0.68547013580E-01 -0.12048351781E+00 -0.53191930071E+00  0.54968455827E+00  0.00000000000E+00 0.  1.
</event>
<event>
 7    1  0.4119299E-008  0.4614232E+02  0.7816164E-02  0.1320468E+00
        -11   -1    0    0    0    0  0.00000000000E+00  0.00000000000E+00  0.45593999997E+02  0.45594000000E+02  0.51100000000E-03 0.  1.
         11   -1    0    0    0    0 -0.00000000000E+00 -0.00000000000E+00 -0.45593999997E+02  0.45594000000E+02  0.51100000000E-03 0. -1.
    9900012    2    1    2    0    0 -0.35294184522E+02  0.21061931406E+01 -0.27910532747E+02  0.46142319310E+02  0.10000014120E+02 0.  0.
        -12    1    1    2    0    0  0.35294184522E+02 -0.21061931406E+01  0.27910532747E+02  0.45045680690E+02  0.00000000000E+00 0.  1.
         11    1    3    3    0    0 -0.52317673336E+00 -0.25392554033E+00  0.37710033149E+00  0.69310677063E+00  0.51100000000E-03 0. -1.
        -11    1    3    3    0    0 -0.10976876172E+02  0.32868511735E+01 -0.12046701305E+02  0.16625829715E+02  0.51100000000E-03 0.  1.
         12    1    3    3    0    0 -0.23794131618E+02 -0.92673249255E+00 -0.16240931773E+02  0.28823382824E+02  0.00000000000E+00 0. -1.
</event>
<event>
 7    1  0.4119299E-008  0.4614232E+02  0.7816164E-02  0.1320468E+00
        -11   -1    0    0    0    0  0.00000000000E+00  0.00000000000E+00  0.45593999997E+02  0.45594000000E+02  0.51100000000E-03 0.  1.
         11   -1    0    0    0    0 -0.00000000000E+00 -0.00000000000E+00 -0.45593999997E+02  0.45594000000E+02  0.51100000000E-03 0. -1.
    9900012    2    1    2    0    0  0.19791458741E+02 -0.37022529395E+02 -0.16332297961E+02  0.46142317870E+02  0.10000000994E+02 0.  0.
        -12    1    1    2    0    0 -0.19791458741E+02  0.37022529395E+02  0.16332297961E+02  0.45045682130E+02  0.00000000000E+00 0.  1.
         11    1    3    3    0    0  0.25578173294E+00 -0.88050121874E+00 -0.11393296217E+01  0.14624564742E+01  0.51100000000E-03 0. -1.
        -11    1    3    3    0    0 -0.86588956145E+00 -0.75646366281E+00 -0.66071288981E+00  0.13261009726E+01  0.51100000000E-03 0.  1.
        -12    1    3    3    0    0  0.20401566569E+02 -0.35385564513E+02 -0.14532255449E+02  0.43353760423E+02  0.00000000000E+00 0.  1.
</event>
<event>
 7    1  0.4119299E-008  0.4614232E+02  0.7816164E-02  0.1320468E+00
        -11   -1    0    0    0    0  0.00000000000E+00  0.00000000000E+00  0.45593999997E+02  0.45594000000E+02  0.51100000000E-03 0. -1.
         11   -1    0    0    0    0 -0.00000000000E+00 -0.00000000000E+00 -0.45593999997E+02  0.45594000000E+02  0.51100000000E-03 0.  1.
    9900012    2    1    2    0    0  0.34548146067E+02 -0.15535543532E+02 -0.24375931250E+02  0.46142317257E+02  0.99999954031E+01 0.  0.
        -12    1    1    2    0    0 -0.34548146067E+02  0.15535543532E+02  0.24375931250E+02  0.45045682743E+02  0.00000000000E+00 0.  1.
         11    1    3    3    0    0  0.80751373612E+01 -0.78697123158E+00 -0.85397899561E+01  0.11779438861E+02  0.51100000000E-03 0. -1.
        -11    1    3    3    0    0  0.13180850058E+02 -0.66724352016E+01 -0.59084074427E+01  0.15911174644E+02  0.51100000000E-03 0.  1.
         12    1    3    3    0    0  0.13292158647E+02 -0.80761370987E+01 -0.99277338511E+01  0.18451703752E+02  0.00000000000E+00 0. -1.
</event>
<event>
 7    1  0.4119299E-008  0.4614232E+02  0.7816164E-02  0.1320468E+00
        -11   -1    0    0    0    0  0.00000000000E+00  0.00000000000E+00  0.45593999997E+02  0.45594000000E+02  0.51100000000E-03 0.  1.
         11   -1    0    0    0    0 -0.00000000000E+00 -0.00000000000E+00 -0.45593999997E+02  0.45594000000E+02  0.51100000000E-03 0. -1.
    9900012    2    1    2    0    0 -0.37709839014E+02  0.19655280725E+02 -0.14857703620E+02  0.46142319012E+02  0.10000011405E+02 0.  0.
        -12    1    1    2    0    0  0.37709839014E+02 -0.19655280725E+02  0.14857703620E+02  0.45045680988E+02  0.00000000000E+00 0.  1.
         11    1    3    3    0    0 -0.51380243343E+01  0.54604114677E+01 -0.31045734925E+01  0.81150332278E+01  0.51100000000E-03 0. -1.
        -11    1    3    3    0    0 -0.17305756185E+02  0.89364824730E+01 -0.96758025757E+01  0.21747898103E+02  0.51100000000E-03 0.  1.
        -12    1    3    3    0    0 -0.15266058494E+02  0.52583867841E+01 -0.20773275513E+01  0.16279387681E+02  0.00000000000E+00 0.  1.
</event>
<event>
 7    1  0.4119299E-008  0.4614231E+02  0.7816164E-02  0.1320468E+00
        -11   -1    0    0    0    0  0.00000000000E+00  0.00000000000E+00  0.45593999997E+02  0.45594000000E+02  0.51100000000E-03 0.  1.
         11   -1    0    0    0    0 -0.00000000000E+00 -0.00000000000E+00 -0.45593999997E+02  0.45594000000E+02  0.51100000000E-03 0. -1.
    9900012    2    1    2    0    0 -0.62835622117E+01 -0.13849799461E+02 -0.42400640008E+02  0.46142307950E+02  0.99999105372E+01 0.  0.
        -12    1    1    2    0    0  0.62835622117E+01  0.13849799461E+02  0.42400640008E+02  0.45045692050E+02  0.00000000000E+00 0.  1.
         11    1    3    3    0    0  0.57511580935E+00 -0.13688203859E+01 -0.72634039122E+00  0.16528756965E+01  0.51100000000E-03 0. -1.
        -11    1    3    3    0    0 -0.31157655423E+01 -0.28288755347E+01 -0.58983575010E+01  0.72457679494E+01  0.51100000000E-03 0.  1.
         12    1    3    3    0    0 -0.37429124787E+01 -0.96521035400E+01 -0.35775942115E+02  0.37243664304E+02  0.00000000000E+00 0. -1.
</event>
<event>
 7    1  0.4119299E-008  0.4614232E+02  0.7816164E-02  0.1320468E+00
        -11   -1    0    0    0    0  0.00000000000E+00  0.00000000000E+00  0.45593999997E+02  0.45594000000E+02  0.51100000000E-03 0.  1.
         11   -1    0    0    0    0 -0.00000000000E+00 -0.00000000000E+00 -0.45593999997E+02  0.45594000000E+02  0.51100000000E-03 0. -1.
    9900012    2    1    2    0    0  0.32900355605E+02 -0.65701315866E+01 -0.30058500706E+02  0.46142317713E+02  0.99999995598E+01 0.  0.
        -12    1    1    2    0    0 -0.32900355605E+02  0.65701315866E+01  0.30058500706E+02  0.45045682287E+02  0.00000000000E+00 0.  1.
         11    1    3    3    0    0 -0.22556099754E+00  0.51457369465E+00 -0.15229899266E+00  0.58211604954E+00  0.51100000000E-03 0. -1.
        -11    1    3    3    0    0  0.12615659126E+02 -0.94443596487E-01 -0.94706435433E+01  0.15775197753E+02  0.51100000000E-03 0.  1.
         12    1    3    3    0    0  0.20510257477E+02 -0.69902616847E+01 -0.20435558170E+02  0.29785003910E+02  0.00000000000E+00 0. -1.
</event>
<event>
 7    1  0.4119299E-008  0.4614232E+02  0.7816164E-02  0.1320468E+00
        -11   -1    0    0    0    0  0.00000000000E+00  0.00000000000E+00  0.45593999997E+02  0.45594000000E+02  0.51100000000E-03 0.  1.
         11   -1    0    0    0    0 -0.00000000000E+00 -0.00000000000E+00 -0.45593999997E+02  0.45594000000E+02  0.51100000000E-03 0. -1.
    9900012    2    1    2    0    0  0.21457974849E+02 -0.38304703020E+02 -0.10070676109E+02  0.46142317905E+02  0.10000001315E+02 0.  0.
        -12    1    1    2    0    0 -0.21457974849E+02  0.38304703020E+02  0.10070676109E+02  0.45045682095E+02  0.00000000000E+00 0.  1.
         11    1    3    3    0    0  0.12968350070E+02 -0.21132607186E+02 -0.62302784781E+01  0.25565241250E+02  0.51100000000E-03 0. -1.
        -11    1    3    3    0    0  0.55773989759E+01 -0.53097601168E+01 -0.32197952854E+01  0.83467367141E+01  0.51100000000E-03 0.  1.
        -12    1    3    3    0    0  0.29122258037E+01 -0.11862335717E+02 -0.62060234579E+00  0.12230339941E+02  0.00000000000E+00 0.  1.
</event>
<event>
 7    1  0.4119299E-008  0.4614232E+02  0.7816164E-02  0.1320468E+00
        -11   -1    0    0    0    0  0.00000000000E+00  0.00000000000E+00  0.45593999997E+02  0.45594000000E+02  0.51100000000E-03 0.  1.
         11   -1    0    0    0    0 -0.00000000000E+00 -0.00000000000E+00 -0.45593999997E+02  0.45594000000E+02  0.51100000000E-03 0. -1.
    9900012    2    1    2    0    0 -0.34983199715E+02  0.25665039934E+02 -0.12107639513E+02  0.46142317946E+02  0.10000001688E+02 0.  0.
        -12    1    1    2    0    0  0.34983199715E+02 -0.25665039934E+02  0.12107639513E+02  0.45045682054E+02  0.00000000000E+00 0.  1.
         11    1    3    3    0    0 -0.16070443292E+02  0.80724843646E+01 -0.40950151837E+01  0.18444329780E+02  0.51100000000E-03 0. -1.
        -11    1    3    3    0    0 -0.55301923754E+01  0.80007121144E+01 -0.91693798718E+00  0.97690940000E+01  0.51100000000E-03 0.  1.
         12    1    3    3    0    0 -0.13382564047E+02  0.95918434549E+01 -0.70956863419E+01  0.17928894166E+02  0.00000000000E+00 0. -1.
</event>
<event>
 7    1  0.4119299E-008  0.4614232E+02  0.7816164E-02  0.1320468E+00
        -11   -1    0    0    0    0  0.00000000000E+00  0.00000000000E+00  0.45593999997E+02  0.45594000000E+02  0.51100000000E-03 0.  1.
         11   -1    0    0    0    0 -0.00000000000E+00 -0.00000000000E+00 -0.45593999997E+02  0.45594000000E+02  0.51100000000E-03 0. -1.
    9900012    2    1    2    0    0 -0.43797555452E+02  0.23354291008E+01 -0.10268075559E+02  0.46142317983E+02  0.10000002023E+02 0.  0.
        -12    1    1    2    0    0  0.43797555452E+02 -0.23354291008E+01  0.10268075559E+02  0.45045682017E+02  0.00000000000E+00 0.  1.
         11    1    3    3    0    0 -0.24711706325E+02  0.86537485625E+00 -0.68733323651E+01  0.25664372215E+02  0.51100000000E-03 0. -1.
        -11    1    3    3    0    0 -0.11885039549E+01  0.17194058487E+01  0.52407968757E+00  0.21548916222E+01  0.51100000000E-03 0.  1.
        -12    1    3    3    0    0 -0.17897345173E+02 -0.24935160417E+00 -0.39188228815E+01  0.18323054146E+02  0.00000000000E+00 0.  1.
</event>
<event>
 7    1  0.4119299E-008  0.4614232E+02  0.7816164E-02  0.1320468E+00
        -11   -1    0    0    0    0  0.00000000000E+00  0.00000000000E+00  0.45593999997E+02  0.45594000000E+02  0.51100000000E-03 0.  1.
         11   -1    0    0    0    0 -0.00000000000E+00 -0.00000000000E+00 -0.45593999997E+02  0.45594000000E+02  0.51100000000E-03 0. -1.
    9900012    2    1    2    0    0 -0.18156054412E+02 -0.20266099962E+02 -0.35899252399E+02  0.46142318272E+02  0.10000004660E+02 0.  0.
        -12    1    1    2    0    0  0.18156054412E+02  0.20266099962E+02  0.35899252399E+02  0.45045681728E+02  0.00000000000E+00 0.  1.
         11    1    3    3    0    0 -0.14687057126E+02 -0.16528114952E+02 -0.24352750940E+02  0.32892927955E+02  0.51100000000E-03 0. -1.
        -11    1    3    3    0    0 -0.37891769375E+01 -0.15118303371E+01 -0.87989478322E+01  0.96987100197E+01  0.51100000000E-03 0.  1.
         12    1    3    3    0    0  0.32017965064E+00 -0.22261546736E+01 -0.27475536268E+01  0.35506802970E+01  0.00000000000E+00 0. -1.
</event>
<event>
 7    1  0.4119299E-008  0.4614232E+02  0.7816164E-02  0.1320468E+00
        -11   -1    0    0    0    0  0.00000000000E+00  0.00000000000E+00  0.45593999997E+02  0.45594000000E+02  0.51100000000E-03 0. -1.
         11   -1    0    0    0    0 -0.00000000000E+00 -0.00000000000E+00 -0.45593999997E+02  0.45594000000E+02  0.51100000000E-03 0.  1.
    9900012    2    1    2    0    0 -0.37491061148E+02  0.24211712331E+02  0.61095688945E+01  0.46142317498E+02  0.99999975974E+01 0.  0.
        -12    1    1    2    0    0  0.37491061148E+02 -0.24211712331E+02 -0.61095688945E+01  0.45045682502E+02  0.00000000000E+00 0.  1.
         11    1    3    3    0    0 -0.25087375903E+02  0.13969705185E+02  0.68451859917E+01  0.29519242269E+02  0.51100000000E-03 0. -1.
        -11    1    3    3    0    0 -0.60746449364E+01  0.26709659226E+01  0.60938139255E+00  0.66638364330E+01  0.51100000000E-03 0.  1.
        -12    1    3    3    0    0 -0.63290403092E+01  0.75710412234E+01 -0.13449984897E+01  0.99592387952E+01  0.00000000000E+00 0.  1.
</event>
<event>
 7    1  0.4119299E-008  0.4614231E+02  0.7816164E-02  0.1320468E+00
        -11   -1    0    0    0    0  0.00000000000E+00  0.00000000000E+00  0.45593999997E+02  0.45594000000E+02  0.51100000000E-03 0.  1.
         11   -1    0    0    0    0 -0.00000000000E+00 -0.00000000000E+00 -0.45593999997E+02  0.45594000000E+02  0.51100000000E-03 0. -1.
    9900012    2    1    2    0    0  0.32898689243E+01  0.37991510517E+02 -0.23977822555E+02  0.46142311156E+02  0.99999397731E+01 0.  0.
        -12    1    1    2    0    0 -0.32898689243E+01 -0.37991510517E+02  0.23977822555E+02  0.45045688844E+02  0.00000000000E+00 0.  1.
         11    1    3    3    0    0  0.23870490968E+01  0.27837365019E+02 -0.15030851843E+02  0.31726068177E+02  0.51100000000E-03 0.  1.
        -11    1    3    3    0    0  0.57037756487E-01  0.10416988855E+02 -0.81899992335E+01  0.13251150811E+02  0.51100000000E-03 0. -1.
        -12    1    3    3    0    0  0.84578207096E+00 -0.26284335667E+00 -0.75697147863E+00  0.11650921685E+01  0.00000000000E+00 0.  1.
</event>
<event>
 7    1  0.4119299E-008  0.4614232E+02  0.7816164E-02  0.1320468E+00
        -11   -1    0    0    0    0  0.00000000000E+00  0.00000000000E+00  0.45593999997E+02  0.45594000000E+02  0.51100000000E-03 0. -1.
         11   -1    0    0    0    0 -0.00000000000E+00 -0.00000000000E+00 -0.45593999997E+02  0.45594000000E+02  0.51100000000E-03 0.  1.
    9900012    2    1    2    0    0  0.22968280210E+02 -0.16540099503E+02 -0.35042783730E+02  0.46142317866E+02  0.10000000954E+02 0.  0.
        -12    1    1    2    0    0 -0.22968280210E+02  0.16540099503E+02  0.35042783730E+02  0.45045682134E+02  0.00000000000E+00 0.  1.
         11    1    3    3    0    0  0.46045872709E+01 -0.12559073354E+01 -0.11408429921E+02  0.12366559776E+02  0.51100000000E-03 0. -1.
        -11    1    3    3    0    0  0.11864202564E+02 -0.88779124094E+01 -0.12554593888E+02  0.19421494772E+02  0.51100000000E-03 0.  1.
         12    1    3    3    0    0  0.64994903757E+01 -0.64062797586E+01 -0.11079759921E+02  0.14354263318E+02  0.00000000000E+00 0. -1.
</event>
<event>
 7    1  0.4119299E-008  0.4614232E+02  0.7816164E-02  0.1320468E+00
        -11   -1    0    0    0    0  0.00000000000E+00  0.00000000000E+00  0.45593999997E+02  0.45594000000E+02  0.51100000000E-03 0.  1.
         11   -1    0    0    0    0 -0.00000000000E+00 -0.00000000000E+00 -0.45593999997E+02  0.45594000000E+02  0.51100000000E-03 0. -1.
    9900012    2    1    2    0    0 -0.23982556642E+02  0.26682539609E+01 -0.38037229781E+02  0.46142318168E+02  0.10000003712E+02 0.  0.
        -12    1    1    2    0    0  0.23982556642E+02 -0.26682539609E+01  0.38037229781E+02  0.45045681832E+02  0.00000000000E+00 0.  1.
         11    1    3    3    0    0 -0.70148245125E+01  0.21359581487E+00 -0.17654363796E+02  0.18998156421E+02  0.51100000000E-03 0. -1.
        -11    1    3    3    0    0 -0.17646004994E+01  0.20616381983E+01 -0.32994857423E+01  0.42720923923E+01  0.51100000000E-03 0.  1.
        -12    1    3    3    0    0 -0.15203131630E+02  0.39301994774E+00 -0.17083380243E+02  0.22872069355E+02  0.00000000000E+00 0.  1.
</event>
<event>
 7    1  0.4119299E-008  0.4614232E+02  0.7816164E-02  0.1320468E+00
        -11   -1    0    0    0    0  0.00000000000E+00  0.00000000000E+00  0.45593999997E+02  0.45594000000E+02  0.51100000000E-03 0. -1.
         11   -1    0    0    0    0 -0.00000000000E+00 -0.00000000000E+00 -0.45593999997E+02  0.45594000000E+02  0.51100000000E-03 0.  1.
    9900012    2    1    2    0    0 -0.61270280070E+01  0.42614464222E+02 -0.13250672555E+02  0.46142319227E+02  0.10000013367E+02 0.  0.
        -12    1    1    2    0    0  0.61270280070E+01 -0.42614464222E+02  0.13250672555E+02  0.45045680773E+02  0.00000000000E+00 0.  1.
         11    1    3    3    0    0 -0.20416646632E+01  0.61814927706E+01 -0.27687061721E+01  0.70742477762E+01  0.51100000000E-03 0. -1.
        -11    1    3    3    0    0  0.58682241571E+00  0.72426251169E+01  0.10394793885E+01  0.73403335614E+01  0.51100000000E-03 0.  1.
        -12    1    3    3    0    0 -0.46721857595E+01  0.29190346335E+02 -0.11521445772E+02  0.31727737889E+02  0.00000000000E+00 0.  1.
</event>
<event>
 7    1  0.4119299E-008  0.4614232E+02  0.7816164E-02  0.1320468E+00
        -11   -1    0    0    0    0  0.00000000000E+00  0.00000000000E+00  0.45593999997E+02  0.45594000000E+02  0.51100000000E-03 0.  1.
         11   -1    0    0    0    0 -0.00000000000E+00 -0.00000000000E+00 -0.45593999997E+02  0.45594000000E+02  0.51100000000E-03 0. -1.
    9900012    2    1    2    0    0  0.25475240317E+02  0.63973295269E+01 -0.36595077471E+02  0.46142318860E+02  0.10000010018E+02 0.  0.
        -12    1    1    2    0    0 -0.25475240317E+02 -0.63973295269E+01  0.36595077471E+02  0.45045681140E+02  0.00000000000E+00 0.  1.
         11    1    3    3    0    0  0.15227338008E+02  0.28393299912E+01 -0.27397057391E+02  0.31472724248E+02  0.51100000000E-03 0. -1.
        -11    1    3    3    0    0  0.62904645557E+00  0.14146757482E+00 -0.22024858507E+01  0.22949197593E+01  0.51100000000E-03 0.  1.
         12    1    3    3    0    0  0.96188558529E+01  0.34165319609E+01 -0.69955342293E+01  0.12374674853E+02  0.00000000000E+00 0. -1.
</event>
<event>
 7    1  0.4119299E-008  0.4614232E+02  0.7816164E-02  0.1320468E+00
        -11   -1    0    0    0    0  0.00000000000E+00  0.00000000000E+00  0.45593999997E+02  0.45594000000E+02  0.51100000000E-03 0.  1.
         11   -1    0    0    0    0 -0.00000000000E+00 -0.00000000000E+00 -0.45593999997E+02  0.45594000000E+02  0.51100000000E-03 0. -1.
    9900012    2    1    2    0    0 -0.17087488167E+01 -0.15267874001E+02 -0.42344841994E+02  0.46142318270E+02  0.10000004642E+02 0.  0.
        -12    1    1    2    0    0  0.17087488167E+01  0.15267874001E+02  0.42344841994E+02  0.45045681730E+02  0.00000000000E+00 0.  1.
         11    1    3    3    0    0 -0.44447996391E-01 -0.50533147398E+01 -0.66687580051E+01  0.83672157302E+01  0.51100000000E-03 0. -1.
        -11    1    3    3    0    0  0.26622228835E+01 -0.34334010149E+01 -0.13752715850E+02  0.14422651168E+02  0.51100000000E-03 0.  1.
        -12    1    3    3    0    0 -0.43265237038E+01 -0.67811582464E+01 -0.21923368139E+02  0.23352451372E+02  0.00000000000E+00 0.  1.
</event>
<event>
 7    1  0.4119299E-008  0.4614232E+02  0.7816164E-02  0.1320468E+00
        -11   -1    0    0    0    0  0.00000000000E+00  0.00000000000E+00  0.45593999997E+02  0.45594000000E+02  0.51100000000E-03 0.  1.
         11   -1    0    0    0    0 -0.00000000000E+00 -0.00000000000E+00 -0.45593999997E+02  0.45594000000E+02  0.51100000000E-03 0. -1.
    9900012    2    1    2    0    0 -0.34351675538E+02 -0.16855569291E+02 -0.23769005887E+02  0.46142317973E+02  0.10000001936E+02 0.  0.
        -12    1    1    2    0    0  0.34351675538E+02  0.16855569291E+02  0.23769005887E+02  0.45045682027E+02  0.00000000000E+00 0.  1.
         11    1    3    3    0    0 -0.18696423329E+02 -0.91578685413E+01 -0.10000774884E+02  0.23096283252E+02  0.51100000000E-03 0. -1.
        -11    1    3    3    0    0 -0.15674669025E+02 -0.70899948352E+01 -0.14194464381E+02  0.22303499616E+02  0.51100000000E-03 0.  1.
         12    1    3    3    0    0  0.19416815570E-01 -0.60770591451E+00  0.42623337751E+00  0.74253510581E+00  0.00000000000E+00 0. -1.
</event>
<event>
 7    1  0.4119299E-008  0.4614232E+02  0.7816164E-02  0.1320468E+00
        -11   -1    0    0    0    0  0.00000000000E+00  0.00000000000E+00  0.45593999997E+02  0.45594000000E+02  0.51100000000E-03 0.  1.
         11   -1    0    0    0    0 -0.00000000000E+00 -0.00000000000E+00 -0.45593999997E+02  0.45594000000E+02  0.51100000000E-03 0. -1.
    9900012    2    1    2    0    0 -0.84550885871E+01  0.21968003324E+01 -0.44190485766E+02  0.46142317777E+02  0.10000000142E+02 0.  0.
        -12    1    1    2    0    0  0.84550885871E+01 -0.21968003324E+01  0.44190485766E+02  0.45045682223E+02  0.00000000000E+00 0.  1.
         11    1    3    3    0    0 -0.18120825580E+01 -0.63954098058E+00 -0.13315634178E+02  0.13453578323E+02  0.51100000000E-03 0. -1.
        -11    1    3    3    0    0 -0.96923867986E+00  0.46640952987E+01 -0.12918853569E+02  0.13769167962E+02  0.51100000000E-03 0.  1.
        -12    1    3    3    0    0 -0.56737673492E+01 -0.18277539857E+01 -0.17955998019E+02  0.18919571492E+02  0.00000000000E+00 0.  1.
</event>
<event>
 7    1  0.4119299E-008  0.4614232E+02  0.7816164E-02  0.1320468E+00
        -11   -1    0    0    0    0  0.00000000000E+00  0.00000000000E+00  0.45593999997E+02  0.45594000000E+02  0.51100000000E-03 0.  1.
         11   -1    0    0    0    0 -0.00000000000E+00 -0.00000000000E+00 -0.45593999997E+02  0.45594000000E+02  0.51100000000E-03 0. -1.
    9900012    2    1    2    0    0  0.31784820488E+02 -0.22779212337E+02 -0.22359481122E+02  0.46142315144E+02  0.99999761335E+01 0.  0.
        -12    1    1    2    0    0 -0.31784820488E+02  0.22779212337E+02  0.22359481122E+02  0.45045684856E+02  0.00000000000E+00 0.  1.
         11    1    3    3    0    0  0.99999035543E+01 -0.81881864020E+01 -0.72468029753E+01  0.14817578118E+02  0.51100000000E-03 0. -1.
        -11    1    3    3    0    0  0.22200687199E+02 -0.14348405864E+02 -0.13579656683E+02  0.29717912760E+02  0.51100000000E-03 0.  1.
         12    1    3    3    0    0 -0.41577026544E+00 -0.24262007056E+00 -0.15330214642E+01  0.16068242660E+01  0.00000000000E+00 0. -1.
</event>
<event>
 7    1  0.4119299E-008  0.4614232E+02  0.7816164E-02  0.1320468E+00
        -11   -1    0    0    0    0  0.00000000000E+00  0.00000000000E+00  0.45593999997E+02  0.45594000000E+02  0.51100000000E-03 0. -1.
         11   -1    0    0    0    0 -0.00000000000E+00 -0.00000000000E+00 -0.45593999997E+02  0.45594000000E+02  0.51100000000E-03 0.  1.
    9900012    2    1    2    0    0  0.30858339524E+02 -0.31265156390E+02  0.99682800957E+01  0.46142315075E+02  0.99999755083E+01 0.  0.
        -12    1    1    2    0    0 -0.30858339524E+02  0.31265156390E+02 -0.99682800957E+01  0.45045684925E+02  0.00000000000E+00 0.  1.
         11    1    3    3    0    0  0.13746862084E+02 -0.10841908169E+02  0.40989105195E+01  0.17981219580E+02  0.51100000000E-03 0.  1.
        -11    1    3    3    0    0  0.65720128419E+01 -0.34813919363E+01  0.28886469269E+00  0.74427740581E+01  0.51100000000E-03 0. -1.
        -12    1    3    3    0    0  0.10539464598E+02 -0.16941856285E+02  0.55805048834E+01  0.20718321437E+02  0.00000000000E+00 0.  1.
</event>
<event>
 7    1  0.4119299E-008  0.4614232E+02  0.7816164E-02  0.1320468E+00
        -11   -1    0    0    0    0  0.00000000000E+00  0.00000000000E+00  0.45593999997E+02  0.45594000000E+02  0.51100000000E-03 0.  1.
         11   -1    0    0    0    0 -0.00000000000E+00 -0.00000000000E+00 -0.45593999997E+02  0.45594000000E+02  0.51100000000E-03 0. -1.
    9900012    2    1    2    0    0  0.26866628613E+01 -0.44292226702E+02  0.77520324166E+01  0.46142317520E+02  0.99999977990E+01 0.  0.
        -12    1    1    2    0    0 -0.26866628613E+01  0.44292226702E+02 -0.77520324166E+01  0.45045682480E+02  0.00000000000E+00 0.  1.
         11    1    3    3    0    0  0.13886959692E+01 -0.11892696569E+02  0.19307969122E-01  0.11973515826E+02  0.51100000000E-03 0. -1.
        -11    1    3    3    0    0 -0.38999501410E+00 -0.12233608547E+02 -0.66778010816E+00  0.12258026135E+02  0.51100000000E-03 0.  1.
        -12    1    3    3    0    0  0.16879619062E+01 -0.20165921586E+02  0.84005045557E+01  0.21910775559E+02  0.00000000000E+00 0.  1.
</event>
<event>
 7    1  0.4119299E-008  0.4614232E+02  0.7816164E-02  0.1320468E+00
        -11   -1    0    0    0    0  0.00000000000E+00  0.00000000000E+00  0.45593999997E+02  0.45594000000E+02  0.51100000000E-03 0. -1.
         11   -1    0    0    0    0 -0.00000000000E+00 -0.00000000000E+00 -0.45593999997E+02  0.45594000000E+02  0.51100000000E-03 0.  1.
    9900012    2    1    2    0    0  0.10459421589E+02  0.43589431434E+02 -0.44357224093E+01  0.46142315789E+02  0.99999820201E+01 0.  0.
        -12    1    1    2    0    0 -0.10459421589E+02 -0.43589431434E+02  0.44357224093E+01  0.45045684211E+02  0.00000000000E+00 0.  1.
         11    1    3    3    0    0  0.54143059423E+01  0.20672107716E+02 -0.48392730930E+01  0.21910484034E+02  0.51100000000E-03 0. -1.
        -11    1    3    3    0    0 -0.12186769356E+01  0.16362086381E+01 -0.95519332339E-01  0.20424192481E+01  0.51100000000E-03 0.  1.
         12    1    3    3    0    0  0.62637925819E+01  0.21281115080E+02  0.49907001610E+00  0.22189412508E+02  0.00000000000E+00 0. -1.
</event>
<event>
 7    1  0.4119299E-008  0.4614232E+02  0.7816164E-02  0.1320468E+00
        -11   -1    0    0    0    0  0.00000000000E+00  0.00000000000E+00  0.45593999997E+02  0.45594000000E+02  0.51100000000E-03 0.  1.
         11   -1    0    0    0    0 -0.00000000000E+00 -0.00000000000E+00 -0.45593999997E+02  0.45594000000E+02  0.51100000000E-03 0. -1.
    9900012    2    1    2    0    0 -0.22800236490E+02  0.34369160676E+02 -0.18111417488E+02  0.46142318376E+02  0.10000005604E+02 0.  0.
        -12    1    1    2    0    0  0.22800236490E+02 -0.34369160676E+02  0.18111417488E+02  0.45045681624E+02  0.00000000000E+00 0.  1.
         11    1    3    3    0    0 -0.14890780271E+02  0.20186974352E+02 -0.10963679575E+02  0.27376112592E+02  0.51100000000E-03 0. -1.
        -11    1    3    3    0    0 -0.84652706940E+01  0.14439721273E+02 -0.69306254967E+01  0.18116289035E+02  0.51100000000E-03 0.  1.
        -12    1    3    3    0    0  0.55581447480E+00 -0.25753494805E+00 -0.21711241610E+00  0.64991674936E+00  0.00000000000E+00 0.  1.
</event>
<event>
 7    1  0.4119299E-008  0.4614232E+02  0.7816164E-02  0.1320468E+00
        -11   -1    0    0    0    0  0.00000000000E+00  0.00000000000E+00  0.45593999997E+02  0.45594000000E+02  0.51100000000E-03 0. -1.
         11   -1    0    0    0    0 -0.00000000000E+00 -0.00000000000E+00 -0.45593999997E+02  0.45594000000E+02  0.51100000000E-03 0.  1.
    9900012    2    1    2    0    0  0.19725806721E+02 -0.40320841455E+02 -0.37730316294E+01  0.46142317920E+02  0.10000001445E+02 0.  0.
        -12    1    1    2    0    0 -0.19725806721E+02  0.40320841455E+02  0.37730316294E+01  0.45045682080E+02  0.00000000000E+00 0.  1.
         11    1    3    3    0    0  0.82442843196E+01 -0.23057334119E+02 -0.36350619997E+00  0.24489610402E+02  0.51100000000E-03 0. -1.
        -11    1    3    3    0    0  0.11291349822E+02 -0.16961496070E+02 -0.23218764967E+01  0.20507999426E+02  0.51100000000E-03 0.  1.
        -12    1    3    3    0    0  0.19017258010E+00 -0.30201126592E+00 -0.10876489327E+01  0.11447080919E+01  0.00000000000E+00 0.  1.
</event>
<event>
 7    1  0.4119299E-008  0.4614232E+02  0.7816164E-02  0.1320468E+00
        -11   -1    0    0    0    0  0.00000000000E+00  0.00000000000E+00  0.45593999997E+02  0.45594000000E+02  0.51100000000E-03 0.  1.
         11   -1    0    0    0    0 -0.00000000000E+00 -0.00000000000E+00 -0.45593999997E+02  0.45594000000E+02  0.51100000000E-03 0. -1.
    9900012    2    1    2    0    0 -0.18635508615E+02  0.10104868088E+02 -0.39745727728E+02  0.46142318597E+02  0.10000007625E+02 0.  0.
        -12    1    1    2    0    0  0.18635508615E+02 -0.10104868088E+02  0.39745727728E+02  0.45045681403E+02  0.00000000000E+00 0.  1.
         11    1    3    3    0    0 -0.76916059910E+01  0.43184181851E+01 -0.19460587047E+02  0.21366421947E+02  0.51100000000E-03 0. -1.
        -11    1    3    3    0    0 -0.24380511964E+01  0.50710812611E+01 -0.69405402129E+01  0.89348227459E+01  0.51100000000E-03 0.  1.
        -12    1    3    3    0    0 -0.85058514275E+01  0.71536864231E+00 -0.13344600468E+02  0.15841073905E+02  0.00000000000E+00 0.  1.
</event>
<event>
 7    1  0.4119299E-008  0.4614232E+02  0.7816164E-02  0.1320468E+00
        -11   -1    0    0    0    0  0.00000000000E+00  0.00000000000E+00  0.45593999997E+02  0.45594000000E+02  0.51100000000E-03 0. -1.
         11   -1    0    0    0    0 -0.00000000000E+00 -0.00000000000E+00 -0.45593999997E+02  0.45594000000E+02  0.51100000000E-03 0.  1.
    9900012    2    1    2    0    0  0.91497025686E+01 -0.44055439480E+02 -0.21247807462E+01  0.46142317653E+02  0.99999990134E+01 0.  0.
        -12    1    1    2    0    0 -0.91497025686E+01  0.44055439480E+02  0.21247807462E+01  0.45045682347E+02  0.00000000000E+00 0.  1.
         11    1    3    3    0    0  0.12964641082E+01 -0.13268042991E+02 -0.21206240239E+01  0.13498845525E+02  0.51100000000E-03 0. -1.
        -11    1    3    3    0    0  0.80902671816E+01 -0.27842588045E+02  0.20164938032E+01  0.29064211320E+02  0.51100000000E-03 0.  1.
        -12    1    3    3    0    0 -0.23702872121E+00 -0.29448084444E+01 -0.20206505254E+01  0.35792608084E+01  0.00000000000E+00 0.  1.
</event>
<event>
 7    1  0.4119299E-008  0.4614232E+02  0.7816164E-02  0.1320468E+00
        -11   -1    0    0    0    0  0.00000000000E+00  0.00000000000E+00  0.45593999997E+02  0.45594000000E+02  0.51100000000E-03 0.  1.
         11   -1    0    0    0    0 -0.00000000000E+00 -0.00000000000E+00 -0.45593999997E+02  0.45594000000E+02  0.51100000000E-03 0. -1.
    9900012    2    1    2    0    0  0.34227609843E+02  0.25305853788E+02 -0.14737635954E+02  0.46142318465E+02  0.10000006416E+02 0.  0.
        -12    1    1    2    0    0 -0.34227609843E+02 -0.25305853788E+02  0.14737635954E+02  0.45045681535E+02  0.00000000000E+00 0.  1.
         11    1    3    3    0    0  0.46642069536E+01  0.38763268712E+01 -0.19656968374E+01  0.63753196654E+01  0.51100000000E-03 0. -1.
        -11    1    3    3    0    0  0.35066044354E+01  0.43994892574E+01  0.10239667979E+01  0.57184166215E+01  0.51100000000E-03 0.  1.
        -12    1    3    3    0    0  0.26056798454E+02  0.17030037659E+02 -0.13795905914E+02  0.34048582178E+02  0.00000000000E+00 0.  1.
</event>
<event>
 7    1  0.4119299E-008  0.4614232E+02  0.7816164E-02  0.1320468E+00
        -11   -1    0    0    0    0  0.00000000000E+00  0.00000000000E+00  0.45593999997E+02  0.45594000000E+02  0.51100000000E-03 0.  1.
         11   -1    0    0    0    0 -0.00000000000E+00 -0.00000000000E+00 -0.45593999997E+02  0.45594000000E+02  0.51100000000E-03 0. -1.
    9900012    2    1    2    0    0  0.41111317663E+02 -0.17834282725E+02 -0.45729031293E+01  0.46142317373E+02  0.99999964601E+01 0.  0.
        -12    1    1    2    0    0 -0.41111317663E+02  0.17834282725E+02  0.45729031293E+01  0.45045682627E+02  0.00000000000E+00 0.  1.
         11    1    3    3    0    0  0.11517345998E+01 -0.14893657274E+01 -0.11626225738E+01  0.22127797831E+01  0.51100000000E-03 0. -1.
        -11    1    3    3    0    0  0.12710137896E+02 -0.87821156551E+01 -0.23800774843E+01  0.15631312479E+02  0.51100000000E-03 0.  1.
        -12    1    3    3    0    0  0.27249445167E+02 -0.75628013428E+01 -0.10302030711E+01  0.28298225111E+02  0.00000000000E+00 0.  1.
</event>
<event>
 7    1  0.4119299E-008  0.4614232E+02  0.7816164E-02  0.1320468E+00
        -11   -1    0    0    0    0  0.00000000000E+00  0.00000000000E+00  0.45593999997E+02  0.45594000000E+02  0.51100000000E-03 0.  1.
         11   -1    0    0    0    0 -0.00000000000E+00 -0.00000000000E+00 -0.45593999997E+02  0.45594000000E+02  0.51100000000E-03 0. -1.
    9900012    2    1    2    0    0 -0.24286259245E+02  0.12258447134E+02 -0.35902946234E+02  0.46142318048E+02  0.10000002615E+02 0.  0.
        -12    1    1    2    0    0  0.24286259245E+02 -0.12258447134E+02  0.35902946234E+02  0.45045681952E+02  0.00000000000E+00 0.  1.
         11    1    3    3    0    0 -0.10053683454E+02  0.55312682051E+01 -0.10249689754E+02  0.15385955260E+02  0.51100000000E-03 0. -1.
        -11    1    3    3    0    0 -0.13332018387E+02  0.54159207430E+01 -0.18549991084E+02  0.23477160843E+02  0.51100000000E-03 0.  1.
        -12    1    3    3    0    0 -0.90055740405E+00  0.13112581854E+01 -0.71032653962E+01  0.72792019450E+01  0.00000000000E+00 0.  1.
</event>
<event>
 7    1  0.4119299E-008  0.4614232E+02  0.7816164E-02  0.1320468E+00
        -11   -1    0    0    0    0  0.00000000000E+00  0.00000000000E+00  0.45593999997E+02  0.45594000000E+02  0.51100000000E-03 0. -1.
         11   -1    0    0    0    0 -0.00000000000E+00 -0.00000000000E+00 -0.45593999997E+02  0.45594000000E+02  0.51100000000E-03 0.  1.
    9900012    2    1    2    0    0 -0.19363416449E+02  0.39466780052E+02  0.98257187086E+01  0.46142319048E+02  0.10000011737E+02 0.  0.
        -12    1    1    2    0    0  0.19363416449E+02 -0.39466780052E+02 -0.98257187086E+01  0.45045680952E+02  0.00000000000E+00 0.  1.
         11    1    3    3    0    0 -0.16025328893E+00  0.34865057850E+01  0.78804643978E+00  0.35780471151E+01  0.51100000000E-03 0. -1.
        -11    1    3    3    0    0 -0.21501205806E+01  0.20764153774E+01 -0.12557136432E+01  0.32421191134E+01  0.51100000000E-03 0.  1.
        -12    1    3    3    0    0 -0.17053042580E+02  0.33903858890E+02  0.10293385912E+02  0.39322152820E+02  0.00000000000E+00 0.  1.
</event>
<event>
 7    1  0.4119299E-008  0.4614232E+02  0.7816164E-02  0.1320468E+00
        -11   -1    0    0    0    0  0.00000000000E+00  0.00000000000E+00  0.45593999997E+02  0.45594000000E+02  0.51100000000E-03 0. -1.
         11   -1    0    0    0    0 -0.00000000000E+00 -0.00000000000E+00 -0.45593999997E+02  0.45594000000E+02  0.51100000000E-03 0.  1.
    9900012    2    1    2    0    0 -0.28892339705E+02 -0.39283189549E+01  0.34335326990E+02  0.46142315823E+02  0.99999823285E+01 0.  0.
        -12    1    1    2    0    0  0.28892339705E+02  0.39283189549E+01 -0.34335326990E+02  0.45045684177E+02  0.00000000000E+00 0.  1.
         11    1    3    3    0    0 -0.87731296447E+01 -0.20258345826E+01  0.71045438028E+01  0.11469365825E+02  0.51100000000E-03 0. -1.
        -11    1    3    3    0    0 -0.77884189021E+01  0.14306527941E+01  0.61588438650E+01  0.10031829067E+02  0.51100000000E-03 0.  1.
        -12    1    3    3    0    0 -0.12330791158E+02 -0.33331371665E+01  0.21071939322E+02  0.24641120931E+02  0.00000000000E+00 0.  1.
</event>
<event>
 7    1  0.4119299E-008  0.4614232E+02  0.7816164E-02  0.1320468E+00
        -11   -1    0    0    0    0  0.00000000000E+00  0.00000000000E+00  0.45593999997E+02  0.45594000000E+02  0.51100000000E-03 0.  1.
         11   -1    0    0    0    0 -0.00000000000E+00 -0.00000000000E+00 -0.45593999997E+02  0.45594000000E+02  0.51100000000E-03 0. -1.
    9900012    2    1    2    0    0 -0.15477731164E+02 -0.14301047565E+02 -0.39812477464E+02  0.46142317796E+02  0.10000000318E+02 0.  0.
        -12    1    1    2    0    0  0.15477731164E+02  0.14301047565E+02  0.39812477464E+02  0.45045682204E+02  0.00000000000E+00 0.  1.
         11    1    3    3    0    0 -0.76986179919E+01 -0.88141619112E+01 -0.18706079031E+02  0.22065256902E+02  0.51100000000E-03 0. -1.
        -11    1    3    3    0    0 -0.88368410608E+01 -0.51940652044E+01 -0.17231711824E+02  0.20049936806E+02  0.51100000000E-03 0.  1.
        -12    1    3    3    0    0  0.10577278891E+01 -0.29282044946E+00 -0.38746866089E+01  0.40271240880E+01  0.00000000000E+00 0.  1.
</event>
<event>
 7    1  0.4119299E-008  0.4614232E+02  0.7816164E-02  0.1320468E+00
        -11   -1    0    0    0    0  0.00000000000E+00  0.00000000000E+00  0.45593999997E+02  0.45594000000E+02  0.51100000000E-03 0. -1.
         11   -1    0    0    0    0 -0.00000000000E+00 -0.00000000000E+00 -0.45593999997E+02  0.45594000000E+02  0.51100000000E-03 0.  1.
    9900012    2    1    2    0    0  0.13718424181E+02 -0.39479316944E+02 -0.16801838323E+02  0.46142318749E+02  0.10000009005E+02 0.  0.
        -12    1    1    2    0    0 -0.13718424181E+02  0.39479316944E+02  0.16801838323E+02  0.45045681251E+02  0.00000000000E+00 0.  1.
         11    1    3    3    0    0  0.97291935863E+01 -0.36198228017E+02 -0.15654011771E+02  0.40620401330E+02  0.51100000000E-03 0. -1.
        -11    1    3    3    0    0  0.16655625094E+01 -0.13462636405E+01 -0.12805632838E+01  0.24952688928E+01  0.51100000000E-03 0.  1.
         12    1    3    3    0    0  0.23236680855E+01 -0.19348252862E+01  0.13273673138E+00  0.30266485259E+01  0.00000000000E+00 0. -1.
</event>
<event>
 7    1  0.4119299E-008  0.4614232E+02  0.7816164E-02  0.1320468E+00
        -11   -1    0    0    0    0  0.00000000000E+00  0.00000000000E+00  0.45593999997E+02  0.45594000000E+02  0.51100000000E-03 0.  1.
         11   -1    0    0    0    0 -0.00000000000E+00 -0.00000000000E+00 -0.45593999997E+02  0.45594000000E+02  0.51100000000E-03 0. -1.
    9900012    2    1    2    0    0 -0.31164311768E+02  0.15413004347E+02 -0.28641550020E+02  0.46142318536E+02  0.10000007069E+02 0.  0.
        -12    1    1    2    0    0  0.31164311768E+02 -0.15413004347E+02  0.28641550020E+02  0.45045681464E+02  0.00000000000E+00 0.  1.
         11    1    3    3    0    0 -0.12436918009E+02  0.29102157736E+01 -0.11600135271E+02  0.17254258141E+02  0.51100000000E-03 0. -1.
        -11    1    3    3    0    0 -0.15839724476E+02  0.81299128047E+01 -0.14940022364E+02  0.23242130328E+02  0.51100000000E-03 0.  1.
        -12    1    3    3    0    0 -0.28876692830E+01  0.43728757683E+01 -0.21013923850E+01  0.56459300676E+01  0.00000000000E+00 0.  1.
</event>
<event>
 7    1  0.4119299E-008  0.4614231E+02  0.7816164E-02  0.1320468E+00
        -11   -1    0    0    0    0  0.00000000000E+00  0.00000000000E+00  0.45593999997E+02  0.45594000000E+02  0.51100000000E-03 0.  1.
         11   -1    0    0    0    0 -0.00000000000E+00 -0.00000000000E+00 -0.45593999997E+02  0.45594000000E+02  0.51100000000E-03 0. -1.
    9900012    2    1    2    0    0  0.20259527767E+02  0.15852520379E+02 -0.36977870620E+02  0.46142314487E+02  0.99999701477E+01 0.  0.
        -12    1    1    2    0    0 -0.20259527767E+02 -0.15852520379E+02  0.36977870620E+02  0.45045685513E+02  0.00000000000E+00 0.  1.
         11    1    3    3    0    0  0.30895277779E+01  0.35070764227E+01 -0.44498153644E+01  0.64533420771E+01  0.51100000000E-03 0. -1.
        -11    1    3    3    0    0  0.10383145596E+02  0.60955968304E+01 -0.11171024923E+02  0.16424305503E+02  0.51100000000E-03 0.  1.
        -12    1    3    3    0    0  0.67868543930E+01  0.62498471261E+01 -0.21357030333E+02  0.23264666907E+02  0.00000000000E+00 0.  1.
</event>
<event>
 7    1  0.4119299E-008  0.4614232E+02  0.7816164E-02  0.1320468E+00
        -11   -1    0    0    0    0  0.00000000000E+00  0.00000000000E+00  0.45593999997E+02  0.45594000000E+02  0.51100000000E-03 0.  1.
         11   -1    0    0    0    0 -0.00000000000E+00 -0.00000000000E+00 -0.45593999997E+02  0.45594000000E+02  0.51100000000E-03 0. -1.
    9900012    2    1    2    0    0 -0.38452878316E+02  0.23396238914E+02 -0.17622806914E+01  0.46142317861E+02  0.10000000914E+02 0.  0.
        -12    1    1    2    0    0  0.38452878316E+02 -0.23396238914E+02  0.17622806914E+01  0.45045682139E+02  0.00000000000E+00 0.  1.
         11    1    3    3    0    0 -0.62831865123E+01  0.76064448114E+01 -0.31126975591E-01  0.98659720539E+01  0.51100000000E-03 0.  1.
        -11    1    3    3    0    0 -0.12353176501E+02  0.35908446944E+01  0.67340364261E+00  0.12882104177E+02  0.51100000000E-03 0. -1.
         12    1    3    3    0    0 -0.19816515302E+02  0.12198949409E+02 -0.24045573584E+01  0.23394241631E+02  0.00000000000E+00 0. -1.
</event>
<event>
 7    1  0.4119299E-008  0.4614232E+02  0.7816164E-02  0.1320468E+00
        -11   -1    0    0    0    0  0.00000000000E+00  0.00000000000E+00  0.45593999997E+02  0.45594000000E+02  0.51100000000E-03 0. -1.
         11   -1    0    0    0    0 -0.00000000000E+00 -0.00000000000E+00 -0.45593999997E+02  0.45594000000E+02  0.51100000000E-03 0.  1.
    9900012    2    1    2    0    0 -0.31731618349E+02  0.19385641211E+02  0.25424687219E+02  0.46142318649E+02  0.10000008100E+02 0.  0.
        -12    1    1    2    0    0  0.31731618349E+02 -0.19385641211E+02 -0.25424687219E+02  0.45045681351E+02  0.00000000000E+00 0.  1.
         11    1    3    3    0    0 -0.26471337541E+02  0.11505489008E+02  0.19526347961E+02  0.34848045188E+02  0.51100000000E-03 0. -1.
        -11    1    3    3    0    0 -0.11672343573E+01  0.30111689404E+01  0.14997403955E+01  0.35607296932E+01  0.51100000000E-03 0.  1.
         12    1    3    3    0    0 -0.40930464505E+01  0.48689832627E+01  0.43985988623E+01  0.77335437679E+01  0.00000000000E+00 0. -1.
</event>
<event>
 7    1  0.4119299E-008  0.4614232E+02  0.7816164E-02  0.1320468E+00
        -11   -1    0    0    0    0  0.00000000000E+00  0.00000000000E+00  0.45593999997E+02  0.45594000000E+02  0.51100000000E-03 0.  1.
         11   -1    0    0    0    0 -0.00000000000E+00 -0.00000000000E+00 -0.45593999997E+02  0.45594000000E+02  0.51100000000E-03 0. -1.
    9900012    2    1    2    0    0  0.20465769915E+02 -0.20134132014E+01 -0.40077573588E+02  0.46142317902E+02  0.10000001289E+02 0.  0.
        -12    1    1    2    0    0 -0.20465769915E+02  0.20134132014E+01  0.40077573588E+02  0.45045682098E+02  0.00000000000E+00 0.  1.
         11    1    3    3    0    0  0.59843303106E+01  0.23117584667E+01 -0.14058444455E+02  0.15453035210E+02  0.51100000000E-03 0. -1.
        -11    1    3    3    0    0  0.12121758535E+02 -0.51089872111E+01 -0.18005757386E+02  0.22299015216E+02  0.51100000000E-03 0.  1.
        -12    1    3    3    0    0  0.23596810699E+01  0.78381554305E+00 -0.80133717473E+01  0.83902674759E+01  0.00000000000E+00 0.  1.
</event>
<event>
 7    1  0.4119299E-008  0.4614232E+02  0.7816164E-02  0.1320468E+00
        -11   -1    0    0    0    0  0.00000000000E+00  0.00000000000E+00  0.45593999997E+02  0.45594000000E+02  0.51100000000E-03 0.  1.
         11   -1    0    0    0    0 -0.00000000000E+00 -0.00000000000E+00 -0.45593999997E+02  0.45594000000E+02  0.51100000000E-03 0. -1.
    9900012    2    1    2    0    0  0.31352562745E+01 -0.46566593023E+01 -0.44694510486E+02  0.46142316795E+02  0.99999911929E+01 0.  0.
        -12    1    1    2    0    0 -0.31352562745E+01  0.46566593023E+01  0.44694510486E+02  0.45045683205E+02  0.00000000000E+00 0.  1.
         11    1    3    3    0    0 -0.70585041230E+00 -0.86376469852E+00 -0.20968712723E+02  0.20998362503E+02  0.51100000000E-03 0. -1.
        -11    1    3    3    0    0  0.42324177293E+01 -0.48030937458E+01 -0.14443645242E+02  0.15798796078E+02  0.51100000000E-03 0.  1.
        -12    1    3    3    0    0 -0.39131104248E+00  0.10101991421E+01 -0.92821525210E+01  0.93451582149E+01  0.00000000000E+00 0.  1.
</event>
<event>
 7    1  0.4119299E-008  0.4614232E+02  0.7816164E-02  0.1320468E+00
        -11   -1    0    0    0    0  0.00000000000E+00  0.00000000000E+00  0.45593999997E+02  0.45594000000E+02  0.51100000000E-03 0.  1.
         11   -1    0    0    0    0 -0.00000000000E+00 -0.00000000000E+00 -0.45593999997E+02  0.45594000000E+02  0.51100000000E-03 0. -1.
    9900012    2    1    2    0    0  0.27252232045E+02 -0.87237991175E+01 -0.34789721341E+02  0.46142317261E+02  0.99999954376E+01 0.  0.
        -12    1    1    2    0    0 -0.27252232045E+02  0.87237991175E+01  0.34789721341E+02  0.45045682739E+02  0.00000000000E+00 0.  1.
         11    1    3    3    0    0  0.36298029377E+01 -0.10911059700E+01 -0.84992450398E+01  0.93060812436E+01  0.51100000000E-03 0. -1.
        -11    1    3    3    0    0  0.56313732670E+01 -0.45473394399E+01 -0.50276694771E+01  0.88129519167E+01  0.51100000000E-03 0.  1.
         12    1    3    3    0    0  0.17991055840E+02 -0.30853537076E+01 -0.21262806824E+02  0.28023284100E+02  0.00000000000E+00 0. -1.
</event>
<event>
 7    1  0.4119299E-008  0.4614232E+02  0.7816164E-02  0.1320468E+00
        -11   -1    0    0    0    0  0.00000000000E+00  0.00000000000E+00  0.45593999997E+02  0.45594000000E+02  0.51100000000E-03 0.  1.
         11   -1    0    0    0    0 -0.00000000000E+00 -0.00000000000E+00 -0.45593999997E+02  0.45594000000E+02  0.51100000000E-03 0. -1.
    9900012    2    1    2    0    0  0.31263328664E+02  0.25152473283E+02 -0.20471222272E+02  0.46142316825E+02  0.99999914642E+01 0.  0.
        -12    1    1    2    0    0 -0.31263328664E+02 -0.25152473283E+02  0.20471222272E+02  0.45045683175E+02  0.00000000000E+00 0.  1.
         11    1    3    3    0    0  0.10463664960E+02  0.10594383430E+02 -0.90874358311E+01  0.17444504433E+02  0.51100000000E-03 0. -1.
        -11    1    3    3    0    0  0.55418363036E+01  0.79482041682E+01 -0.35809394994E+01  0.10330006151E+02  0.51100000000E-03 0.  1.
         12    1    3    3    0    0  0.15257827400E+02  0.66098856851E+01 -0.78028469412E+01  0.18367806242E+02  0.00000000000E+00 0. -1.
</event>
<event>
 7    1  0.4119299E-008  0.4614232E+02  0.7816164E-02  0.1320468E+00
        -11   -1    0    0    0    0  0.00000000000E+00  0.00000000000E+00  0.45593999997E+02  0.45594000000E+02  0.51100000000E-03 0. -1.
         11   -1    0    0    0    0 -0.00000000000E+00 -0.00000000000E+00 -0.45593999997E+02  0.45594000000E+02  0.51100000000E-03 0.  1.
    9900012    2    1    2    0    0  0.80754334410E+01 -0.18456767299E+02  0.40289561285E+02  0.46142316156E+02  0.99999853659E+01 0.  0.
        -12    1    1    2    0    0 -0.80754334410E+01  0.18456767299E+02 -0.40289561285E+02  0.45045683844E+02  0.00000000000E+00 0.  1.
         11    1    3    3    0    0  0.89591716939E+01 -0.96130713068E+01  0.23566623529E+02  0.26982654469E+02  0.51100000000E-03 0. -1.
        -11    1    3    3    0    0  0.95693068394E-01 -0.51583883529E+00  0.89578968337E-01  0.53223258076E+00  0.51100000000E-03 0.  1.
        -12    1    3    3    0    0 -0.97943132135E+00 -0.83278571569E+01  0.16633358788E+02  0.18627429106E+02  0.00000000000E+00 0.  1.
</event>
<event>
 7    1  0.4119299E-008  0.4614233E+02  0.7816164E-02  0.1320468E+00
        -11   -1    0    0    0    0  0.00000000000E+00  0.00000000000E+00  0.45593999997E+02  0.45594000000E+02  0.51100000000E-03 0.  1.
         11   -1    0    0    0    0 -0.00000000000E+00 -0.00000000000E+00 -0.45593999997E+02  0.45594000000E+02  0.51100000000E-03 0. -1.
    9900012    2    1    2    0    0 -0.28304367368E+02 -0.15580376400E+02 -0.31388330785E+02  0.46142327063E+02  0.10000084823E+02 0.  0.
        -12    1    1    2    0    0  0.28304367368E+02  0.15580376400E+02  0.31388330785E+02  0.45045672937E+02  0.00000000000E+00 0.  1.
         11    1    3    3    0    0 -0.21858033735E+02 -0.12243124088E+02 -0.24477327342E+02  0.35025808774E+02  0.51100000000E-03 0. -1.
        -11    1    3    3    0    0 -0.40273194837E+01 -0.26338220785E+01 -0.13288161057E+01  0.49922012648E+01  0.51100000000E-03 0.  1.
         12    1    3    3    0    0 -0.24190141494E+01 -0.70343023389E+00 -0.55821873372E+01  0.61243170245E+01  0.00000000000E+00 0. -1.
</event>
<event>
 7    1  0.4119299E-008  0.4614232E+02  0.7816164E-02  0.1320468E+00
        -11   -1    0    0    0    0  0.00000000000E+00  0.00000000000E+00  0.45593999997E+02  0.45594000000E+02  0.51100000000E-03 0. -1.
         11   -1    0    0    0    0 -0.00000000000E+00 -0.00000000000E+00 -0.45593999997E+02  0.45594000000E+02  0.51100000000E-03 0.  1.
    9900012    2    1    2    0    0 -0.42576829335E+02  0.14650175283E+02  0.13036915717E+01  0.46142316036E+02  0.99999842696E+01 0.  0.
        -12    1    1    2    0    0  0.42576829335E+02 -0.14650175283E+02 -0.13036915717E+01  0.45045683964E+02  0.00000000000E+00 0.  1.
         11    1    3    3    0    0 -0.33624707532E+02  0.89010817336E+01 -0.10478285359E+01  0.34798680399E+02  0.51100000000E-03 0. -1.
        -11    1    3    3    0    0 -0.86002220966E+01  0.55805930337E+01  0.14408643611E+01  0.10352918868E+02  0.51100000000E-03 0.  1.
        -12    1    3    3    0    0 -0.35189970695E+00  0.16850051566E+00  0.91065574655E+00  0.99071676893E+00  0.00000000000E+00 0.  1.
</event>
<event>
 7    1  0.4119299E-008  0.4614232E+02  0.7816164E-02  0.1320468E+00
        -11   -1    0    0    0    0  0.00000000000E+00  0.00000000000E+00  0.45593999997E+02  0.45594000000E+02  0.51100000000E-03 0.  1.
         11   -1    0    0    0    0 -0.00000000000E+00 -0.00000000000E+00 -0.45593999997E+02  0.45594000000E+02  0.51100000000E-03 0. -1.
    9900012    2    1    2    0    0  0.22551176592E+02  0.22593852630E+02 -0.31781689001E+02  0.46142317653E+02  0.99999990143E+01 0.  0.
        -12    1    1    2    0    0 -0.22551176592E+02 -0.22593852630E+02  0.31781689001E+02  0.45045682347E+02  0.00000000000E+00 0.  1.
         11    1    3    3    0    0 -0.31231851619E+00  0.26085973381E+01 -0.23051854635E+01  0.34951685524E+01  0.51100000000E-03 0. -1.
        -11    1    3    3    0    0  0.36107060845E+01  0.35688506968E+01 -0.24894200703E+01  0.56542998039E+01  0.51100000000E-03 0.  1.
         12    1    3    3    0    0  0.19252789024E+02  0.16416404595E+02 -0.26987083467E+02  0.36992849297E+02  0.00000000000E+00 0. -1.
</event>
<event>
 7    1  0.4119299E-008  0.4614232E+02  0.7816164E-02  0.1320468E+00
        -11   -1    0    0    0    0  0.00000000000E+00  0.00000000000E+00  0.45593999997E+02  0.45594000000E+02  0.51100000000E-03 0.  1.
         11   -1    0    0    0    0 -0.00000000000E+00 -0.00000000000E+00 -0.45593999997E+02  0.45594000000E+02  0.51100000000E-03 0. -1.
    9900012    2    1    2    0    0 -0.27549574343E+02 -0.17149804920E+02 -0.31241296374E+02  0.46142318138E+02  0.10000003440E+02 0.  0.
        -12    1    1    2    0    0  0.27549574343E+02  0.17149804920E+02  0.31241296374E+02  0.45045681862E+02  0.00000000000E+00 0.  1.
         11    1    3    3    0    0 -0.24017428372E+01 -0.41308525709E+01 -0.71726511991E+01  0.86185403117E+01  0.51100000000E-03 0. -1.
        -11    1    3    3    0    0 -0.10427433681E+02 -0.78273452328E+01 -0.91220775364E+01  0.15912605236E+02  0.51100000000E-03 0.  1.
         12    1    3    3    0    0 -0.14720397825E+02 -0.51916071160E+01 -0.14946567638E+02  0.21611172591E+02  0.00000000000E+00 0. -1.
</event>
<event>
 7    1  0.4119299E-008  0.4614232E+02  0.7816164E-02  0.1320468E+00
        -11   -1    0    0    0    0  0.00000000000E+00  0.00000000000E+00  0.45593999997E+02  0.45594000000E+02  0.51100000000E-03 0.  1.
         11   -1    0    0    0    0 -0.00000000000E+00 -0.00000000000E+00 -0.45593999997E+02  0.45594000000E+02  0.51100000000E-03 0. -1.
    9900012    2    1    2    0    0 -0.32922925643E+02  0.99662794515E+01 -0.29083804708E+02  0.46142318129E+02  0.10000003351E+02 0.  0.
        -12    1    1    2    0    0  0.32922925643E+02 -0.99662794515E+01  0.29083804708E+02  0.45045681871E+02  0.00000000000E+00 0.  1.
         11    1    3    3    0    0 -0.11010813439E+02  0.76911826881E+01 -0.88123502075E+01  0.16063929164E+02  0.51100000000E-03 0. -1.
        -11    1    3    3    0    0 -0.58863608373E+01 -0.50103858396E+00 -0.45386654330E+01  0.74498166248E+01  0.51100000000E-03 0.  1.
        -12    1    3    3    0    0 -0.16025751366E+02  0.27761353473E+01 -0.15732789067E+02  0.22628572340E+02  0.00000000000E+00 0.  1.
</event>
<event>
 7    1  0.5243415E-008  0.4614232E+02  0.7816164E-02  0.1320468E+00
        -11   -1    0    0    0    0  0.00000000000E+00  0.00000000000E+00  0.45593999997E+02  0.45594000000E+02  0.51100000000E-03 0.  1.
         11   -1    0    0    0    0 -0.00000000000E+00 -0.00000000000E+00 -0.45593999997E+02  0.45594000000E+02  0.51100000000E-03 0. -1.
    9900012    2    1    2    0    0 -0.38271374513E+02 -0.13190578750E+02 -0.19759151734E+02  0.46142317053E+02  0.99999935442E+01 0.  0.
        -12    1    1    2    0    0  0.38271374513E+02  0.13190578750E+02  0.19759151734E+02  0.45045682947E+02  0.00000000000E+00 0.  1.
         11    1    3    3    0    0 -0.22951221002E+02 -0.75181059620E+01 -0.10876028662E+02  0.26487137679E+02  0.51100000000E-03 0. -1.
        -11    1    3    3    0    0 -0.13517030078E+02 -0.33129215696E+01 -0.50470962904E+01  0.14804010696E+02  0.51100000000E-03 0.  1.
        -12    1    3    3    0    0 -0.18031234333E+01 -0.23595512185E+01 -0.38360267823E+01  0.48511686780E+01  0.00000000000E+00 0.  1.
</event>
<event>
 7    1  0.4119299E-008  0.4614232E+02  0.7816164E-02  0.1320468E+00
        -11   -1    0    0    0    0  0.00000000000E+00  0.00000000000E+00  0.45593999997E+02  0.45594000000E+02  0.51100000000E-03 0.  1.
         11   -1    0    0    0    0 -0.00000000000E+00 -0.00000000000E+00 -0.45593999997E+02  0.45594000000E+02  0.51100000000E-03 0. -1.
    9900012    2    1    2    0    0  0.42869278565E+02 -0.99114633357E+00 -0.13796959576E+02  0.46142317529E+02  0.99999978801E+01 0.  0.
        -12    1    1    2    0    0 -0.42869278565E+02  0.99114633357E+00  0.13796959576E+02  0.45045682471E+02  0.00000000000E+00 0.  1.
         11    1    3    3    0    0  0.10627615121E+02  0.93177923703E+00 -0.60963032483E+01  0.12287364619E+02  0.51100000000E-03 0.  1.
        -11    1    3    3    0    0  0.14288527879E+02 -0.41411656214E+01 -0.33234995220E+01  0.15243258542E+02  0.51100000000E-03 0. -1.
         12    1    3    3    0    0  0.17953135565E+02  0.22182400508E+01 -0.43771568060E+01  0.18611694368E+02  0.00000000000E+00 0. -1.
</event>
<event>
 7    1  0.4119299E-008  0.4614232E+02  0.7816164E-02  0.1320468E+00
        -11   -1    0    0    0    0  0.00000000000E+00  0.00000000000E+00  0.45593999997E+02  0.45594000000E+02  0.51100000000E-03 0.  1.
         11   -1    0    0    0    0 -0.00000000000E+00 -0.00000000000E+00 -0.45593999997E+02  0.45594000000E+02  0.51100000000E-03 0. -1.
    9900012    2    1    2    0    0 -0.25014091199E+02 -0.97222116276E+01 -0.36178545759E+02  0.46142319511E+02  0.10000015960E+02 0.  0.
        -12    1    1    2    0    0  0.25014091199E+02  0.97222116276E+01  0.36178545759E+02  0.45045680489E+02  0.00000000000E+00 0.  1.
         11    1    3    3    0    0 -0.11818750951E+02 -0.33757189945E+01 -0.11371822009E+02  0.16745049682E+02  0.51100000000E-03 0. -1.
        -11    1    3    3    0    0 -0.23236753882E+00  0.80147466181E+00 -0.61807664520E+00  0.10384485096E+01  0.51100000000E-03 0.  1.
         12    1    3    3    0    0 -0.12962972709E+02 -0.71479672949E+01 -0.24188647105E+02  0.28358821320E+02  0.00000000000E+00 0. -1.
</event>
<event>
 7    1  0.4119299E-008  0.4614232E+02  0.7816164E-02  0.1320468E+00
        -11   -1    0    0    0    0  0.00000000000E+00  0.00000000000E+00  0.45593999997E+02  0.45594000000E+02  0.51100000000E-03 0. -1.
         11   -1    0    0    0    0 -0.00000000000E+00 -0.00000000000E+00 -0.45593999997E+02  0.45594000000E+02  0.51100000000E-03 0.  1.
    9900012    2    1    2    0    0  0.13813346805E+02 -0.36713461494E+02  0.22145579921E+02  0.46142317467E+02  0.99999973204E+01 0.  0.
        -12    1    1    2    0    0 -0.13813346805E+02  0.36713461494E+02 -0.22145579921E+02  0.45045682533E+02  0.00000000000E+00 0.  1.
         11    1    3    3    0    0  0.28301256999E+01 -0.81042789745E+01  0.88071497896E+01  0.12298570521E+02  0.51100000000E-03 0. -1.
        -11    1    3    3    0    0  0.51660040723E+01 -0.86468742366E+01  0.63548221639E+01  0.11909651428E+02  0.51100000000E-03 0.  1.
        -12    1    3    3    0    0  0.58172170331E+01 -0.19962308283E+02  0.69836079671E+01  0.21934095519E+02  0.00000000000E+00 0.  1.
</event>
<event>
 7    1  0.4119299E-008  0.4614232E+02  0.7816164E-02  0.1320468E+00
        -11   -1    0    0    0    0  0.00000000000E+00  0.00000000000E+00  0.45593999997E+02  0.45594000000E+02  0.51100000000E-03 0.  1.
         11   -1    0    0    0    0 -0.00000000000E+00 -0.00000000000E+00 -0.45593999997E+02  0.45594000000E+02  0.51100000000E-03 0. -1.
    9900012    2    1    2    0    0  0.33715078424E+02 -0.21107922568E+02 -0.21139123045E+02  0.46142318394E+02  0.10000005769E+02 0.  0.
        -12    1    1    2    0    0 -0.33715078424E+02  0.21107922568E+02  0.21139123045E+02  0.45045681606E+02  0.00000000000E+00 0.  1.
         11    1    3    3    0    0  0.30842877429E+02 -0.17464943626E+02 -0.16726603777E+02  0.39192940922E+02  0.51100000000E-03 0. -1.
        -11    1    3    3    0    0  0.58773993138E+00 -0.17007021010E+01 -0.24612882621E+00  0.18161512942E+01  0.51100000000E-03 0.  1.
         12    1    3    3    0    0  0.22844610641E+01 -0.19422768407E+01 -0.41663904417E+01  0.51332261778E+01  0.00000000000E+00 0. -1.
</event>
<event>
 7    1  0.4119299E-008  0.4614232E+02  0.7816164E-02  0.1320468E+00
        -11   -1    0    0    0    0  0.00000000000E+00  0.00000000000E+00  0.45593999997E+02  0.45594000000E+02  0.51100000000E-03 0. -1.
         11   -1    0    0    0    0 -0.00000000000E+00 -0.00000000000E+00 -0.45593999997E+02  0.45594000000E+02  0.51100000000E-03 0.  1.
    9900012    2    1    2    0    0  0.44576844994E+02 -0.64786205559E+01  0.21414762816E+00  0.46142317708E+02  0.99999995134E+01 0.  0.
        -12    1    1    2    0    0 -0.44576844994E+02  0.64786205559E+01 -0.21414762816E+00  0.45045682292E+02  0.00000000000E+00 0.  1.
         11    1    3    3    0    0  0.19692411418E+02 -0.94961844433E-01 -0.27297578415E+01  0.19880937185E+02  0.51100000000E-03 0.  1.
        -11    1    3    3    0    0  0.23293215675E+02 -0.52217106359E+01  0.17010977053E+01  0.23931859354E+02  0.51100000000E-03 0. -1.
         12    1    3    3    0    0  0.15912179013E+01 -0.11619480755E+01  0.12428077644E+01  0.23295211694E+01  0.00000000000E+00 0. -1.
</event>
<event>
 7    1  0.4119299E-008  0.4614232E+02  0.7816164E-02  0.1320468E+00
        -11   -1    0    0    0    0  0.00000000000E+00  0.00000000000E+00  0.45593999997E+02  0.45594000000E+02  0.51100000000E-03 0.  1.
         11   -1    0    0    0    0 -0.00000000000E+00 -0.00000000000E+00 -0.45593999997E+02  0.45594000000E+02  0.51100000000E-03 0. -1.
    9900012    2    1    2    0    0 -0.43691800910E+01  0.17474897054E+02 -0.41287428525E+02  0.46142317455E+02  0.99999972071E+01 0.  0.
        -12    1    1    2    0    0  0.43691800910E+01 -0.17474897054E+02  0.41287428525E+02  0.45045682545E+02  0.00000000000E+00 0.  1.
         11    1    3    3    0    0  0.12557334753E+01  0.75117465044E+01 -0.20067510530E+02  0.21464113800E+02  0.51100000000E-03 0. -1.
        -11    1    3    3    0    0 -0.16894457120E+01  0.55844971532E+01 -0.15091637912E+02  0.16180184498E+02  0.51100000000E-03 0.  1.
        -12    1    3    3    0    0 -0.39354678544E+01  0.43786533965E+01 -0.61282800840E+01  0.84980191567E+01  0.00000000000E+00 0.  1.
</event>
<event>
 7    1  0.4119299E-008  0.4614232E+02  0.7816164E-02  0.1320468E+00
        -11   -1    0    0    0    0  0.00000000000E+00  0.00000000000E+00  0.45593999997E+02  0.45594000000E+02  0.51100000000E-03 0.  1.
         11   -1    0    0    0    0 -0.00000000000E+00 -0.00000000000E+00 -0.45593999997E+02  0.45594000000E+02  0.51100000000E-03 0. -1.
    9900012    2    1    2    0    0 -0.43697730866E+02  0.94401812674E+01 -0.55231107211E+01  0.46142318107E+02  0.10000003154E+02 0.  0.
        -12    1    1    2    0    0  0.43697730866E+02 -0.94401812674E+01  0.55231107211E+01  0.45045681893E+02  0.00000000000E+00 0.  1.
         11    1    3    3    0    0 -0.66391201271E+01  0.85364591395E+00 -0.10765296223E+00  0.66946409037E+01  0.51100000000E-03 0. -1.
        -11    1    3    3    0    0 -0.14597143063E+02  0.56034318180E+01  0.16261754145E+01  0.15720034366E+02  0.51100000000E-03 0.  1.
        -12    1    3    3    0    0 -0.22461467676E+02  0.29831035355E+01 -0.70416331733E+01  0.23727642837E+02  0.00000000000E+00 0.  1.
</event>
<event>
 7    1  0.4119299E-008  0.4614231E+02  0.7816164E-02  0.1320468E+00
        -11   -1    0    0    0    0  0.00000000000E+00  0.00000000000E+00  0.45593999997E+02  0.45594000000E+02  0.51100000000E-03 0. -1.
         11   -1    0    0    0    0 -0.00000000000E+00 -0.00000000000E+00 -0.45593999997E+02  0.45594000000E+02  0.51100000000E-03 0.  1.
    9900012    2    1    2    0    0 -0.21471814521E+02 -0.39527445831E+02  0.23782422330E+01  0.46142313981E+02  0.99999655339E+01 0.  0.
        -12    1    1    2    0    0  0.21471814521E+02  0.39527445831E+02 -0.23782422330E+01  0.45045686019E+02  0.00000000000E+00 0.  1.
         11    1    3    3    0    0 -0.98480684366E+01 -0.12101848799E+02  0.24804555190E+01  0.15798476387E+02  0.51100000000E-03 0. -1.
        -11    1    3    3    0    0 -0.46893933247E+00  0.35908266971E-01  0.51420252239E+00  0.69684861794E+00  0.51100000000E-03 0.  1.
         12    1    3    3    0    0 -0.11154806752E+02 -0.27461505299E+02 -0.61641580846E+00  0.29646988977E+02  0.00000000000E+00 0. -1.
</event>
<event>
 7    1  0.4119299E-008  0.4614232E+02  0.7816164E-02  0.1320468E+00
        -11   -1    0    0    0    0  0.00000000000E+00  0.00000000000E+00  0.45593999997E+02  0.45594000000E+02  0.51100000000E-03 0.  1.
         11   -1    0    0    0    0 -0.00000000000E+00 -0.00000000000E+00 -0.45593999997E+02  0.45594000000E+02  0.51100000000E-03 0. -1.
    9900012    2    1    2    0    0  0.91832792318E+00 -0.43656722389E+02 -0.11061681772E+02  0.46142317193E+02  0.99999948190E+01 0.  0.
        -12    1    1    2    0    0 -0.91832792318E+00  0.43656722389E+02  0.11061681772E+02  0.45045682807E+02  0.00000000000E+00 0.  1.
         11    1    3    3    0    0  0.15640777304E+01 -0.11927470579E+02 -0.30683225053E+01  0.12414729027E+02  0.51100000000E-03 0.  1.
        -11    1    3    3    0    0 -0.25647803777E+01 -0.30966031832E+01 -0.38489547465E+00  0.40392071558E+01  0.51100000000E-03 0. -1.
         12    1    3    3    0    0  0.19190305705E+01 -0.28632648627E+02 -0.76084637918E+01  0.29688381010E+02  0.00000000000E+00 0. -1.
</event>
<event>
 7    1  0.4119299E-008  0.4614232E+02  0.7816164E-02  0.1320468E+00
        -11   -1    0    0    0    0  0.00000000000E+00  0.00000000000E+00  0.45593999997E+02  0.45594000000E+02  0.51100000000E-03 0.  1.
         11   -1    0    0    0    0 -0.00000000000E+00 -0.00000000000E+00 -0.45593999997E+02  0.45594000000E+02  0.51100000000E-03 0. -1.
    9900012    2    1    2    0    0 -0.29065367722E+02  0.14926845706E+02 -0.31008178826E+02  0.46142317880E+02  0.10000001086E+02 0.  0.
        -12    1    1    2    0    0  0.29065367722E+02 -0.14926845706E+02  0.31008178826E+02  0.45045682120E+02  0.00000000000E+00 0.  1.
         11    1    3    3    0    0 -0.56757032354E+01  0.17468068212E+01 -0.42762239895E+01  0.73178571424E+01  0.51100000000E-03 0. -1.
        -11    1    3    3    0    0 -0.12699567865E+02  0.41135373758E+01 -0.17620904809E+02  0.22106480956E+02  0.51100000000E-03 0.  1.
         12    1    3    3    0    0 -0.10690096622E+02  0.90665015086E+01 -0.91110500266E+01  0.16717979782E+02  0.00000000000E+00 0. -1.
</event>
<event>
 7    1  0.4119299E-008  0.4614232E+02  0.7816164E-02  0.1320468E+00
        -11   -1    0    0    0    0  0.00000000000E+00  0.00000000000E+00  0.45593999997E+02  0.45594000000E+02  0.51100000000E-03 0.  1.
         11   -1    0    0    0    0 -0.00000000000E+00 -0.00000000000E+00 -0.45593999997E+02  0.45594000000E+02  0.51100000000E-03 0. -1.
    9900012    2    1    2    0    0 -0.33943895701E+02  0.18045020383E+02 -0.23479834513E+02  0.46142318245E+02  0.10000004411E+02 0.  0.
        -12    1    1    2    0    0  0.33943895701E+02 -0.18045020383E+02  0.23479834513E+02  0.45045681755E+02  0.00000000000E+00 0.  1.
         11    1    3    3    0    0 -0.17251325717E+02  0.75213532691E+01 -0.12835119484E+02  0.22779799964E+02  0.51100000000E-03 0. -1.
        -11    1    3    3    0    0 -0.77223306222E+01  0.78771132919E+01 -0.34344144846E+01  0.11553289885E+02  0.51100000000E-03 0.  1.
        -12    1    3    3    0    0 -0.89702393626E+01  0.26465538220E+01 -0.72103005445E+01  0.11809228396E+02  0.00000000000E+00 0.  1.
</event>
<event>
 7    1  0.4119299E-008  0.4614232E+02  0.7816164E-02  0.1320468E+00
        -11   -1    0    0    0    0  0.00000000000E+00  0.00000000000E+00  0.45593999997E+02  0.45594000000E+02  0.51100000000E-03 0.  1.
         11   -1    0    0    0    0 -0.00000000000E+00 -0.00000000000E+00 -0.45593999997E+02  0.45594000000E+02  0.51100000000E-03 0. -1.
    9900012    2    1    2    0    0  0.39412439233E+02  0.96663649956E+01 -0.19553375521E+02  0.46142317934E+02  0.10000001579E+02 0.  0.
        -12    1    1    2    0    0 -0.39412439233E+02 -0.96663649956E+01  0.19553375521E+02  0.45045682066E+02  0.00000000000E+00 0.  1.
         11    1    3    3    0    0  0.24135142257E+02  0.60024286694E+01 -0.82195183650E+01  0.26193409937E+02  0.51100000000E-03 0. -1.
        -11    1    3    3    0    0  0.47169558413E+01  0.21803510169E+01 -0.62704107876E+01  0.81438108200E+01  0.51100000000E-03 0.  1.
         12    1    3    3    0    0  0.10560341134E+02  0.14835853093E+01 -0.50634463686E+01  0.11805097177E+02  0.00000000000E+00 0. -1.
</event>
<event>
 7    1  0.4119299E-008  0.4614232E+02  0.7816164E-02  0.1320468E+00
        -11   -1    0    0    0    0  0.00000000000E+00  0.00000000000E+00  0.45593999997E+02  0.45594000000E+02  0.51100000000E-03 0. -1.
         11   -1    0    0    0    0 -0.00000000000E+00 -0.00000000000E+00 -0.45593999997E+02  0.45594000000E+02  0.51100000000E-03 0.  1.
    9900012    2    1    2    0    0  0.30241030855E+02 -0.19450385934E+01  0.33328820923E+02  0.46142318449E+02  0.10000006271E+02 0.  0.
        -12    1    1    2    0    0 -0.30241030855E+02  0.19450385934E+01 -0.33328820923E+02  0.45045681551E+02  0.00000000000E+00 0.  1.
         11    1    3    3    0    0  0.16482225483E+02 -0.26829788488E+01  0.13128509751E+02  0.21241937315E+02  0.51100000000E-03 0. -1.
        -11    1    3    3    0    0  0.11482100612E+01  0.45547052923E+00  0.49884662903E+01  0.51391279356E+01  0.51100000000E-03 0.  1.
        -12    1    3    3    0    0  0.12610595310E+02  0.28246972610E+00  0.15211844882E+02  0.19761253198E+02  0.00000000000E+00 0.  1.
</event>
<event>
 7    1  0.4119299E-008  0.4614232E+02  0.7816164E-02  0.1320468E+00
        -11   -1    0    0    0    0  0.00000000000E+00  0.00000000000E+00  0.45593999997E+02  0.45594000000E+02  0.51100000000E-03 0.  1.
         11   -1    0    0    0    0 -0.00000000000E+00 -0.00000000000E+00 -0.45593999997E+02  0.45594000000E+02  0.51100000000E-03 0. -1.
    9900012    2    1    2    0    0  0.14894922081E+02 -0.25124511753E+02 -0.34293057672E+02  0.46142316532E+02  0.99999887935E+01 0.  0.
        -12    1    1    2    0    0 -0.14894922081E+02  0.25124511753E+02  0.34293057672E+02  0.45045683468E+02  0.00000000000E+00 0.  1.
         11    1    3    3    0    0  0.23090403712E+01 -0.50681992935E+00 -0.36159396543E+01  0.43201335305E+01  0.51100000000E-03 0. -1.
        -11    1    3    3    0    0  0.77059037861E+01 -0.10584810325E+02 -0.18204259224E+02  0.22423519281E+02  0.51100000000E-03 0.  1.
         12    1    3    3    0    0  0.48799779238E+01 -0.14032881498E+02 -0.12472858794E+02  0.19398663721E+02  0.00000000000E+00 0. -1.
</event>
<event>
 7    1  0.4119299E-008  0.4614232E+02  0.7816164E-02  0.1320468E+00
        -11   -1    0    0    0    0  0.00000000000E+00  0.00000000000E+00  0.45593999997E+02  0.45594000000E+02  0.51100000000E-03 0.  1.
         11   -1    0    0    0    0 -0.00000000000E+00 -0.00000000000E+00 -0.45593999997E+02  0.45594000000E+02  0.51100000000E-03 0. -1.
    9900012    2    1    2    0    0 -0.42575258777E+01 -0.44830278003E+02  0.11104656825E+01  0.46142317782E+02  0.10000000189E+02 0.  0.
        -12    1    1    2    0    0  0.42575258777E+01  0.44830278003E+02 -0.11104656825E+01  0.45045682218E+02  0.00000000000E+00 0.  1.
         11    1    3    3    0    0 -0.45423622897E+01 -0.20486134981E+02  0.17072483540E+01  0.21053015908E+02  0.51100000000E-03 0. -1.
        -11    1    3    3    0    0 -0.23996284764E+01 -0.64386852549E+01 -0.11920700106E+01  0.69739454979E+01  0.51100000000E-03 0.  1.
        -12    1    3    3    0    0  0.26844648884E+01 -0.17905457768E+02  0.59528733908E+00  0.18115356376E+02  0.00000000000E+00 0.  1.
</event>
<event>
 7    1  0.4119299E-008  0.4614232E+02  0.7816164E-02  0.1320468E+00
        -11   -1    0    0    0    0  0.00000000000E+00  0.00000000000E+00  0.45593999997E+02  0.45594000000E+02  0.51100000000E-03 0.  1.
         11   -1    0    0    0    0 -0.00000000000E+00 -0.00000000000E+00 -0.45593999997E+02  0.45594000000E+02  0.51100000000E-03 0. -1.
    9900012    2    1    2    0    0 -0.13866068690E+02  0.30838221058E+02 -0.29763226785E+02  0.46142318658E+02  0.10000008177E+02 0.  0.
        -12    1    1    2    0    0  0.13866068690E+02 -0.30838221058E+02  0.29763226785E+02  0.45045681342E+02  0.00000000000E+00 0.  1.
         11    1    3    3    0    0 -0.53597487431E+00  0.50838282031E+01 -0.52912205061E+01  0.73572816291E+01  0.51100000000E-03 0. -1.
        -11    1    3    3    0    0 -0.10813093285E+02  0.22154196124E+02 -0.16442738398E+02  0.29632668435E+02  0.51100000000E-03 0.  1.
         12    1    3    3    0    0 -0.25170005305E+01  0.36001967303E+01 -0.80292678807E+01  0.91523685933E+01  0.00000000000E+00 0. -1.
</event>
<event>
 7    1  0.4119299E-008  0.4614231E+02  0.7816164E-02  0.1320468E+00
        -11   -1    0    0    0    0  0.00000000000E+00  0.00000000000E+00  0.45593999997E+02  0.45594000000E+02  0.51100000000E-03 0.  1.
         11   -1    0    0    0    0 -0.00000000000E+00 -0.00000000000E+00 -0.45593999997E+02  0.45594000000E+02  0.51100000000E-03 0. -1.
    9900012    2    1    2    0    0  0.28218906570E+02 -0.19940526736E+02 -0.28899525249E+02  0.46142313701E+02  0.99999629805E+01 0.  0.
        -12    1    1    2    0    0 -0.28218906570E+02  0.19940526736E+02  0.28899525249E+02  0.45045686299E+02  0.00000000000E+00 0.  1.
         11    1    3    3    0    0  0.26402960352E+02 -0.18327303584E+02 -0.27628807458E+02  0.42383456370E+02  0.51100000000E-03 0. -1.
        -11    1    3    3    0    0  0.21727005108E+01 -0.44307649378E+00 -0.12281009599E+01  0.25347931903E+01  0.51100000000E-03 0.  1.
         12    1    3    3    0    0 -0.35675429350E+00 -0.11701466584E+01 -0.42616830957E-01  0.12240641414E+01  0.00000000000E+00 0. -1.
</event>
<event>
 7    1  0.4119299E-008  0.4614232E+02  0.7816164E-02  0.1320468E+00
        -11   -1    0    0    0    0  0.00000000000E+00  0.00000000000E+00  0.45593999997E+02  0.45594000000E+02  0.51100000000E-03 0.  1.
         11   -1    0    0    0    0 -0.00000000000E+00 -0.00000000000E+00 -0.45593999997E+02  0.45594000000E+02  0.51100000000E-03 0. -1.
    9900012    2    1    2    0    0 -0.13045764470E+02 -0.21951036925E+02 -0.37108939795E+02  0.46142318682E+02  0.10000008396E+02 0.  0.
        -12    1    1    2    0    0  0.13045764470E+02  0.21951036925E+02  0.37108939795E+02  0.45045681318E+02  0.00000000000E+00 0.  1.
         11    1    3    3    0    0 -0.12315192667E+02 -0.13304924639E+02 -0.26880620098E+02  0.32423027730E+02  0.51100000000E-03 0. -1.
        -11    1    3    3    0    0 -0.14024242951E+01 -0.18890800643E+01 -0.26745228377E+01  0.35620906871E+01  0.51100000000E-03 0.  1.
        -12    1    3    3    0    0  0.67185249224E+00 -0.67570322221E+01 -0.75537968591E+01  0.10157200264E+02  0.00000000000E+00 0.  1.
</event>
<event>
 7    1  0.4119299E-008  0.4614232E+02  0.7816164E-02  0.1320468E+00
        -11   -1    0    0    0    0  0.00000000000E+00  0.00000000000E+00  0.45593999997E+02  0.45594000000E+02  0.51100000000E-03 0.  1.
         11   -1    0    0    0    0 -0.00000000000E+00 -0.00000000000E+00 -0.45593999997E+02  0.45594000000E+02  0.51100000000E-03 0. -1.
    9900012    2    1    2    0    0  0.11282945453E+02  0.43024938587E+02 -0.71178107961E+01  0.46142318420E+02  0.10000006008E+02 0.  0.
        -12    1    1    2    0    0 -0.11282945453E+02 -0.43024938587E+02  0.71178107961E+01  0.45045681580E+02  0.00000000000E+00 0.  1.
         11    1    3    3    0    0  0.83466582236E+01  0.27547025207E+02 -0.61266242148E+01  0.29428571589E+02  0.51100000000E-03 0. -1.
        -11    1    3    3    0    0  0.32912355496E+01  0.10548032700E+02  0.15472198682E+01  0.11157379390E+02  0.51100000000E-03 0.  1.
         12    1    3    3    0    0 -0.35494832061E+00  0.49298806803E+01 -0.25384064495E+01  0.55563674407E+01  0.00000000000E+00 0. -1.
</event>
<event>
 7    1  0.4119299E-008  0.4614232E+02  0.7816164E-02  0.1320468E+00
        -11   -1    0    0    0    0  0.00000000000E+00  0.00000000000E+00  0.45593999997E+02  0.45594000000E+02  0.51100000000E-03 0. -1.
         11   -1    0    0    0    0 -0.00000000000E+00 -0.00000000000E+00 -0.45593999997E+02  0.45594000000E+02  0.51100000000E-03 0.  1.
    9900012    2    1    2    0    0  0.12585357768E+02  0.26772953756E+02  0.33969562178E+02  0.46142318326E+02  0.10000005150E+02 0.  0.
        -12    1    1    2    0    0 -0.12585357768E+02 -0.26772953756E+02 -0.33969562178E+02  0.45045681674E+02  0.00000000000E+00 0.  1.
         11    1    3    3    0    0  0.90376140462E-01  0.48930435279E+01  0.49256793157E+01  0.69435120648E+01  0.51100000000E-03 0.  1.
        -11    1    3    3    0    0  0.12779168169E+02  0.20374129180E+02  0.28987415652E+02  0.37665402499E+02  0.51100000000E-03 0. -1.
         12    1    3    3    0    0 -0.28418654137E+00  0.15057810475E+01  0.56467209988E-01  0.15334037625E+01  0.00000000000E+00 0. -1.
</event>
<event>
 7    1  0.4119299E-008  0.4614232E+02  0.7816164E-02  0.1320468E+00
        -11   -1    0    0    0    0  0.00000000000E+00  0.00000000000E+00  0.45593999997E+02  0.45594000000E+02  0.51100000000E-03 0.  1.
         11   -1    0    0    0    0 -0.00000000000E+00 -0.00000000000E+00 -0.45593999997E+02  0.45594000000E+02  0.51100000000E-03 0. -1.
    9900012    2    1    2    0    0 -0.99897788791E+01  0.30965658324E+02 -0.31151980647E+02  0.46142316792E+02  0.99999911620E+01 0.  0.
        -12    1    1    2    0    0  0.99897788791E+01 -0.30965658324E+02  0.31151980647E+02  0.45045683208E+02  0.00000000000E+00 0.  1.
         11    1    3    3    0    0 -0.59264232262E+01  0.15282472888E+02 -0.15709228571E+02  0.22703663413E+02  0.51100000000E-03 0. -1.
        -11    1    3    3    0    0 -0.45369967039E+01  0.50803974204E+01 -0.78260309701E+01  0.10375044002E+02  0.51100000000E-03 0.  1.
        -12    1    3    3    0    0  0.47364105099E+00  0.10602788015E+02 -0.76167211061E+01  0.13063609376E+02  0.00000000000E+00 0.  1.
</event>
<event>
 7    1  0.4119299E-008  0.4614232E+02  0.7816164E-02  0.1320468E+00
        -11   -1    0    0    0    0  0.00000000000E+00  0.00000000000E+00  0.45593999997E+02  0.45594000000E+02  0.51100000000E-03 0.  1.
         11   -1    0    0    0    0 -0.00000000000E+00 -0.00000000000E+00 -0.45593999997E+02  0.45594000000E+02  0.51100000000E-03 0. -1.
    9900012    2    1    2    0    0  0.23964504895E+02  0.25502645478E+00 -0.38141199140E+02  0.46142316464E+02  0.99999881731E+01 0.  0.
        -12    1    1    2    0    0 -0.23964504895E+02 -0.25502645478E+00  0.38141199140E+02  0.45045683536E+02  0.00000000000E+00 0.  1.
         11    1    3    3    0    0  0.78598257506E+01  0.16549958426E+01 -0.10886395501E+02  0.13528838802E+02  0.51100000000E-03 0. -1.
        -11    1    3    3    0    0  0.80543548698E+01 -0.44989925474E+01 -0.15407934174E+02  0.17958786208E+02  0.51100000000E-03 0.  1.
        -12    1    3    3    0    0  0.80503242748E+01  0.30990231596E+01 -0.11846869465E+02  0.14654691454E+02  0.00000000000E+00 0.  1.
</event>
<event>
 7    1  0.4119299E-008  0.4614232E+02  0.7816164E-02  0.1320468E+00
        -11   -1    0    0    0    0  0.00000000000E+00  0.00000000000E+00  0.45593999997E+02  0.45594000000E+02  0.51100000000E-03 0.  1.
         11   -1    0    0    0    0 -0.00000000000E+00 -0.00000000000E+00 -0.45593999997E+02  0.45594000000E+02  0.51100000000E-03 0. -1.
    9900012    2    1    2    0    0 -0.35913860920E+02  0.26155339726E+02 -0.74300846136E+01  0.46142319189E+02  0.10000013019E+02 0.  0.
        -12    1    1    2    0    0  0.35913860920E+02 -0.26155339726E+02  0.74300846136E+01  0.45045680811E+02  0.00000000000E+00 0.  1.
         11    1    3    3    0    0 -0.19395945776E+02  0.16503768715E+02 -0.18125154865E+01  0.25531594290E+02  0.51100000000E-03 0. -1.
        -11    1    3    3    0    0 -0.12017419670E+02  0.63960408964E+01 -0.63253788440E+01  0.15011266850E+02  0.51100000000E-03 0.  1.
         12    1    3    3    0    0 -0.45004954745E+01  0.32555301145E+01  0.70780971691E+00  0.55994580486E+01  0.00000000000E+00 0. -1.
</event>
<event>
 7    1  0.4119299E-008  0.4614232E+02  0.7816164E-02  0.1320468E+00
        -11   -1    0    0    0    0  0.00000000000E+00  0.00000000000E+00  0.45593999997E+02  0.45594000000E+02  0.51100000000E-03 0.  1.
         11   -1    0    0    0    0 -0.00000000000E+00 -0.00000000000E+00 -0.45593999997E+02  0.45594000000E+02  0.51100000000E-03 0. -1.
    9900012    2    1    2    0    0 -0.44281631742E+02  0.14657024583E+01 -0.81303363310E+01  0.46142316941E+02  0.99999925175E+01 0.  0.
        -12    1    1    2    0    0  0.44281631742E+02 -0.14657024583E+01  0.81303363310E+01  0.45045683059E+02  0.00000000000E+00 0.  1.
         11    1    3    3    0    0 -0.14259739286E+02  0.14020902563E+01 -0.10671158411E+01  0.14368185622E+02  0.51100000000E-03 0.  1.
        -11    1    3    3    0    0 -0.18615388910E+02 -0.57839119180E+00 -0.56963112647E+00  0.18633081348E+02  0.51100000000E-03 0. -1.
        -12    1    3    3    0    0 -0.11406503546E+02  0.64200339380E+00 -0.64935893635E+01  0.13141049971E+02  0.00000000000E+00 0.  1.
</event>
<event>
 7    1  0.4119299E-008  0.4614232E+02  0.7816164E-02  0.1320468E+00
        -11   -1    0    0    0    0  0.00000000000E+00  0.00000000000E+00  0.45593999997E+02  0.45594000000E+02  0.51100000000E-03 0.  1.
         11   -1    0    0    0    0 -0.00000000000E+00 -0.00000000000E+00 -0.45593999997E+02  0.45594000000E+02  0.51100000000E-03 0. -1.
    9900012    2    1    2    0    0  0.13388506784E+02 -0.16132851707E+01 -0.42979747140E+02  0.46142317996E+02  0.10000002146E+02 0.  0.
        -12    1    1    2    0    0 -0.13388506784E+02  0.16132851707E+01  0.42979747140E+02  0.45045682004E+02  0.00000000000E+00 0.  1.
         11    1    3    3    0    0  0.94362958904E+01 -0.36006416010E+01 -0.28483017146E+02  0.30220697644E+02  0.51100000000E-03 0. -1.
        -11    1    3    3    0    0  0.17496162004E+01  0.23154355018E+00 -0.12085682372E+02  0.12213864578E+02  0.51100000000E-03 0.  1.
        -12    1    3    3    0    0  0.22025946927E+01  0.17558128801E+01 -0.24110476215E+01  0.37077557745E+01  0.00000000000E+00 0.  1.
</event>
<event>
 7    1  0.4119299E-008  0.4614232E+02  0.7816164E-02  0.1320468E+00
        -11   -1    0    0    0    0  0.00000000000E+00  0.00000000000E+00  0.45593999997E+02  0.45594000000E+02  0.51100000000E-03 0.  1.
         11   -1    0    0    0    0 -0.00000000000E+00 -0.00000000000E+00 -0.45593999997E+02  0.45594000000E+02  0.51100000000E-03 0. -1.
    9900012    2    1    2    0    0 -0.19126165450E+02  0.33651704511E+02 -0.23040527293E+02  0.46142319638E+02  0.10000017119E+02 0.  0.
        -12    1    1    2    0    0  0.19126165450E+02 -0.33651704511E+02  0.23040527293E+02  0.45045680362E+02  0.00000000000E+00 0.  1.
         11    1    3    3    0    0 -0.10306893655E+02  0.14452925545E+02 -0.14402022775E+02  0.22859076401E+02  0.51100000000E-03 0. -1.
        -11    1    3    3    0    0 -0.35622032538E+01  0.32267412717E+01 -0.18917178524E+01  0.51652442295E+01  0.51100000000E-03 0.  1.
        -12    1    3    3    0    0 -0.52570685409E+01  0.15972037694E+02 -0.67467866655E+01  0.18117999008E+02  0.00000000000E+00 0.  1.
</event>
<event>
 7    1  0.4119299E-008  0.4614232E+02  0.7816164E-02  0.1320468E+00
        -11   -1    0    0    0    0  0.00000000000E+00  0.00000000000E+00  0.45593999997E+02  0.45594000000E+02  0.51100000000E-03 0.  1.
         11   -1    0    0    0    0 -0.00000000000E+00 -0.00000000000E+00 -0.45593999997E+02  0.45594000000E+02  0.51100000000E-03 0. -1.
    9900012    2    1    2    0    0  0.21268360545E+02 -0.15497097122E+02 -0.36559684021E+02  0.46142315688E+02  0.99999810912E+01 0.  0.
        -12    1    1    2    0    0 -0.21268360545E+02  0.15497097122E+02  0.36559684021E+02  0.45045684312E+02  0.00000000000E+00 0.  1.
         11    1    3    3    0    0  0.15010685824E+02 -0.11121197034E+02 -0.22609490476E+02  0.29329009056E+02  0.51100000000E-03 0. -1.
        -11    1    3    3    0    0  0.26521663285E+01 -0.42541060646E+01 -0.11220272971E+02  0.12289260778E+02  0.51100000000E-03 0.  1.
         12    1    3    3    0    0  0.36055083919E+01 -0.12179402363E+00 -0.27299205734E+01  0.45240458536E+01  0.00000000000E+00 0. -1.
</event>
<event>
 7    1  0.4119299E-008  0.4614232E+02  0.7816164E-02  0.1320468E+00
        -11   -1    0    0    0    0  0.00000000000E+00  0.00000000000E+00  0.45593999997E+02  0.45594000000E+02  0.51100000000E-03 0. -1.
         11   -1    0    0    0    0 -0.00000000000E+00 -0.00000000000E+00 -0.45593999997E+02  0.45594000000E+02  0.51100000000E-03 0.  1.
    9900012    2    1    2    0    0 -0.30933165125E+02  0.32686363155E+02 -0.19632874866E+01  0.46142317203E+02  0.99999949083E+01 0.  0.
        -12    1    1    2    0    0  0.30933165125E+02 -0.32686363155E+02  0.19632874866E+01  0.45045682797E+02  0.00000000000E+00 0.  1.
         11    1    3    3    0    0 -0.31881363082E+00  0.15539436117E+01 -0.77883269207E+00  0.17671908507E+01  0.51100000000E-03 0. -1.
        -11    1    3    3    0    0  0.11949611893E+00  0.11785755406E+01  0.77261569700E+00  0.14143036815E+01  0.51100000000E-03 0.  1.
         12    1    3    3    0    0 -0.30733847613E+02  0.29953844002E+02 -0.19570704915E+01  0.42960822670E+02  0.00000000000E+00 0. -1.
</event>
<event>
 7    1  0.4119299E-008  0.4614232E+02  0.7816164E-02  0.1320468E+00
        -11   -1    0    0    0    0  0.00000000000E+00  0.00000000000E+00  0.45593999997E+02  0.45594000000E+02  0.51100000000E-03 0.  1.
         11   -1    0    0    0    0 -0.00000000000E+00 -0.00000000000E+00 -0.45593999997E+02  0.45594000000E+02  0.51100000000E-03 0. -1.
    9900012    2    1    2    0    0  0.19829155713E+02 -0.30913095538E+02 -0.26082533713E+02  0.46142318111E+02  0.10000003188E+02 0.  0.
        -12    1    1    2    0    0 -0.19829155713E+02  0.30913095538E+02  0.26082533713E+02  0.45045681889E+02  0.00000000000E+00 0.  1.
         11    1    3    3    0    0  0.76800345482E+01 -0.15172254989E+02 -0.15970618388E+02  0.23328971346E+02  0.51100000000E-03 0. -1.
        -11    1    3    3    0    0  0.70087413715E+00 -0.36375896820E+01 -0.10599654308E+01  0.38531558787E+01  0.51100000000E-03 0.  1.
         12    1    3    3    0    0  0.11448247027E+02 -0.12103250867E+02 -0.90519498938E+01  0.18960190886E+02  0.00000000000E+00 0. -1.
</event>
<event>
 7    1  0.4119299E-008  0.4614232E+02  0.7816164E-02  0.1320468E+00
        -11   -1    0    0    0    0  0.00000000000E+00  0.00000000000E+00  0.45593999997E+02  0.45594000000E+02  0.51100000000E-03 0.  1.
         11   -1    0    0    0    0 -0.00000000000E+00 -0.00000000000E+00 -0.45593999997E+02  0.45594000000E+02  0.51100000000E-03 0. -1.
    9900012    2    1    2    0    0 -0.21069814619E+02 -0.65242405329E+01 -0.39276082614E+02  0.46142317985E+02  0.10000002046E+02 0.  0.
        -12    1    1    2    0    0  0.21069814619E+02  0.65242405329E+01  0.39276082614E+02  0.45045682015E+02  0.00000000000E+00 0.  1.
         11    1    3    3    0    0 -0.14370857665E+01  0.13408149412E-01 -0.55848665990E+00  0.15418504756E+01  0.51100000000E-03 0. -1.
        -11    1    3    3    0    0 -0.12118961113E+02 -0.33684303792E+01 -0.15318059945E+02  0.19820658476E+02  0.51100000000E-03 0.  1.
         12    1    3    3    0    0 -0.75137677400E+01 -0.31692183031E+01 -0.23399536010E+02  0.24779809034E+02  0.00000000000E+00 0. -1.
</event>
<event>
 7    1  0.4119299E-008  0.4614232E+02  0.7816164E-02  0.1320468E+00
        -11   -1    0    0    0    0  0.00000000000E+00  0.00000000000E+00  0.45593999997E+02  0.45594000000E+02  0.51100000000E-03 0.  1.
         11   -1    0    0    0    0 -0.00000000000E+00 -0.00000000000E+00 -0.45593999997E+02  0.45594000000E+02  0.51100000000E-03 0. -1.
    9900012    2    1    2    0    0  0.15045633065E+01 -0.25833267919E+02 -0.36871289563E+02  0.46142318341E+02  0.10000005288E+02 0.  0.
        -12    1    1    2    0    0 -0.15045633065E+01  0.25833267919E+02  0.36871289563E+02  0.45045681659E+02  0.00000000000E+00 0.  1.
         11    1    3    3    0    0  0.21682715091E+01 -0.16215358592E+02 -0.23856453098E+02  0.28926970292E+02  0.51100000000E-03 0. -1.
        -11    1    3    3    0    0  0.42821231693E+00 -0.10068795898E+02 -0.11856363814E+02  0.15560764113E+02  0.51100000000E-03 0.  1.
         12    1    3    3    0    0 -0.10919205195E+01  0.45088657056E+00 -0.11584726508E+01  0.16545839366E+01  0.00000000000E+00 0. -1.
</event>
<event>
 7    1  0.4119299E-008  0.4614232E+02  0.7816164E-02  0.1320468E+00
        -11   -1    0    0    0    0  0.00000000000E+00  0.00000000000E+00  0.45593999997E+02  0.45594000000E+02  0.51100000000E-03 0.  1.
         11   -1    0    0    0    0 -0.00000000000E+00 -0.00000000000E+00 -0.45593999997E+02  0.45594000000E+02  0.51100000000E-03 0. -1.
    9900012    2    1    2    0    0  0.42012310048E+02  0.37568173993E+01 -0.15810298101E+02  0.46142318758E+02  0.10000009091E+02 0.  0.
        -12    1    1    2    0    0 -0.42012310048E+02 -0.37568173993E+01  0.15810298101E+02  0.45045681242E+02  0.00000000000E+00 0.  1.
         11    1    3    3    0    0  0.98507189148E+01  0.88765620356E+00 -0.59914769633E+01  0.11563839896E+02  0.51100000000E-03 0. -1.
        -11    1    3    3    0    0  0.17012327803E+02  0.32127137790E+01 -0.87213421293E+01  0.19385629623E+02  0.51100000000E-03 0.  1.
        -12    1    3    3    0    0  0.15149263330E+02 -0.34355258327E+00 -0.10974790084E+01  0.15192849239E+02  0.00000000000E+00 0.  1.
</event>
<event>
 7    1  0.4119299E-008  0.4614232E+02  0.7816164E-02  0.1320468E+00
        -11   -1    0    0    0    0  0.00000000000E+00  0.00000000000E+00  0.45593999997E+02  0.45594000000E+02  0.51100000000E-03 0. -1.
         11   -1    0    0    0    0 -0.00000000000E+00 -0.00000000000E+00 -0.45593999997E+02  0.45594000000E+02  0.51100000000E-03 0.  1.
    9900012    2    1    2    0    0 -0.77423331777E+01 -0.36517391006E+02  0.25212092597E+02  0.46142321161E+02  0.10000031005E+02 0.  0.
        -12    1    1    2    0    0  0.77423331777E+01  0.36517391006E+02 -0.25212092597E+02  0.45045678839E+02  0.00000000000E+00 0.  1.
         11    1    3    3    0    0 -0.80248517662E+01 -0.27070749002E+02  0.16022933977E+02  0.32464721019E+02  0.51100000000E-03 0. -1.
        -11    1    3    3    0    0  0.18181228484E+01 -0.47649073679E+01  0.36957793302E+01  0.62983091410E+01  0.51100000000E-03 0.  1.
         12    1    3    3    0    0 -0.15356042599E+01 -0.46817346361E+01  0.54933792905E+01  0.73792910008E+01  0.00000000000E+00 0. -1.
</event>
<event>
 7    1  0.4119299E-008  0.4614232E+02  0.7816164E-02  0.1320468E+00
        -11   -1    0    0    0    0  0.00000000000E+00  0.00000000000E+00  0.45593999997E+02  0.45594000000E+02  0.51100000000E-03 0.  1.
         11   -1    0    0    0    0 -0.00000000000E+00 -0.00000000000E+00 -0.45593999997E+02  0.45594000000E+02  0.51100000000E-03 0. -1.
    9900012    2    1    2    0    0 -0.36147190262E+02  0.26280316584E+02  0.56425678658E+01  0.46142323451E+02  0.10000051885E+02 0.  0.
        -12    1    1    2    0    0  0.36147190262E+02 -0.26280316584E+02 -0.56425678658E+01  0.45045676549E+02  0.00000000000E+00 0.  1.
         11    1    3    3    0    0 -0.10653440191E+02  0.55618911937E+01  0.56623123401E+01  0.13285036803E+02  0.51100000000E-03 0. -1.
        -11    1    3    3    0    0 -0.72965422391E+00  0.73751062073E+00  0.10286696876E-01  0.10375082069E+01  0.51100000000E-03 0.  1.
         12    1    3    3    0    0 -0.24764095847E+02  0.19980914770E+02 -0.30031171200E-01  0.31819778441E+02  0.00000000000E+00 0. -1.
</event>
<event>
 7    1  0.4119299E-008  0.4614232E+02  0.7816164E-02  0.1320468E+00
        -11   -1    0    0    0    0  0.00000000000E+00  0.00000000000E+00  0.45593999997E+02  0.45594000000E+02  0.51100000000E-03 0.  1.
         11   -1    0    0    0    0 -0.00000000000E+00 -0.00000000000E+00 -0.45593999997E+02  0.45594000000E+02  0.51100000000E-03 0. -1.
    9900012    2    1    2    0    0  0.31935356240E+01  0.35275194356E+02 -0.27831195840E+02  0.46142317981E+02  0.10000002008E+02 0.  0.
        -12    1    1    2    0    0 -0.31935356240E+01 -0.35275194356E+02  0.27831195840E+02  0.45045682019E+02  0.00000000000E+00 0.  1.
         11    1    3    3    0    0  0.10946678196E+01  0.20793912940E+02 -0.20280455998E+02  0.29066854125E+02  0.51100000000E-03 0. -1.
        -11    1    3    3    0    0 -0.11447166026E+01  0.63826541067E+01 -0.42226760346E+01  0.77381937622E+01  0.51100000000E-03 0.  1.
        -12    1    3    3    0    0  0.32435844069E+01  0.80986273097E+01 -0.33280638080E+01  0.93372700944E+01  0.00000000000E+00 0.  1.
</event>
<event>
 7    1  0.4119299E-008  0.4614232E+02  0.7816164E-02  0.1320468E+00
        -11   -1    0    0    0    0  0.00000000000E+00  0.00000000000E+00  0.45593999997E+02  0.45594000000E+02  0.51100000000E-03 0.  1.
         11   -1    0    0    0    0 -0.00000000000E+00 -0.00000000000E+00 -0.45593999997E+02  0.45594000000E+02  0.51100000000E-03 0. -1.
    9900012    2    1    2    0    0 -0.29894694901E+02 -0.73277749128E+01 -0.32889579743E+02  0.46142317365E+02  0.99999963853E+01 0.  0.
        -12    1    1    2    0    0  0.29894694901E+02  0.73277749128E+01  0.32889579743E+02  0.45045682635E+02  0.00000000000E+00 0.  1.
         11    1    3    3    0    0 -0.17222427227E+02 -0.25692742495E+01 -0.20933886405E+02  0.27229410020E+02  0.51100000000E-03 0. -1.
        -11    1    3    3    0    0 -0.12849858677E+02 -0.52993759705E+01 -0.10723301698E+02  0.17555382458E+02  0.51100000000E-03 0.  1.
         12    1    3    3    0    0  0.17759100268E+00  0.54087530722E+00 -0.12323916406E+01  0.13575248867E+01  0.00000000000E+00 0. -1.
</event>
<event>
 7    1  0.4119299E-008  0.4614232E+02  0.7816164E-02  0.1320468E+00
        -11   -1    0    0    0    0  0.00000000000E+00  0.00000000000E+00  0.45593999997E+02  0.45594000000E+02  0.51100000000E-03 0.  1.
         11   -1    0    0    0    0 -0.00000000000E+00 -0.00000000000E+00 -0.45593999997E+02  0.45594000000E+02  0.51100000000E-03 0. -1.
    9900012    2    1    2    0    0 -0.12356373026E+02  0.19242351774E+02 -0.38809347206E+02  0.46142317779E+02  0.10000000167E+02 0.  0.
        -12    1    1    2    0    0  0.12356373026E+02 -0.19242351774E+02  0.38809347206E+02  0.45045682221E+02  0.00000000000E+00 0.  1.
         11    1    3    3    0    0  0.96360616554E+00  0.24656650054E+01 -0.17502853135E+01  0.31735689217E+01  0.51100000000E-03 0. -1.
        -11    1    3    3    0    0 -0.19423025573E+00  0.13622953015E+01 -0.36897152335E+01  0.39379655466E+01  0.51100000000E-03 0.  1.
         12    1    3    3    0    0 -0.13125748936E+02  0.15414391467E+02 -0.33369346659E+02  0.39030783311E+02  0.00000000000E+00 0. -1.
</event>
<event>
 7    1  0.4119299E-008  0.4614232E+02  0.7816164E-02  0.1320468E+00
        -11   -1    0    0    0    0  0.00000000000E+00  0.00000000000E+00  0.45593999997E+02  0.45594000000E+02  0.51100000000E-03 0. -1.
         11   -1    0    0    0    0 -0.00000000000E+00 -0.00000000000E+00 -0.45593999997E+02  0.45594000000E+02  0.51100000000E-03 0.  1.
    9900012    2    1    2    0    0 -0.22250631121E+02 -0.38702803735E+02 -0.60096505604E+01  0.46142317609E+02  0.99999986123E+01 0.  0.
        -12    1    1    2    0    0  0.22250631121E+02  0.38702803735E+02  0.60096505604E+01  0.45045682391E+02  0.00000000000E+00 0.  1.
         11    1    3    3    0    0 -0.13768381684E+02 -0.19833456995E+02 -0.30390172781E+01  0.24334542874E+02  0.51100000000E-03 0. -1.
        -11    1    3    3    0    0 -0.24708153828E+01 -0.96041393543E+00 -0.91934618126E+00  0.28058013552E+01  0.51100000000E-03 0.  1.
         12    1    3    3    0    0 -0.60114340539E+01 -0.17908932804E+02 -0.20512871010E+01  0.19001973380E+02  0.00000000000E+00 0. -1.
</event>
<event>
 7    1  0.4119299E-008  0.4614232E+02  0.7816164E-02  0.1320468E+00
        -11   -1    0    0    0    0  0.00000000000E+00  0.00000000000E+00  0.45593999997E+02  0.45594000000E+02  0.51100000000E-03 0.  1.
         11   -1    0    0    0    0 -0.00000000000E+00 -0.00000000000E+00 -0.45593999997E+02  0.45594000000E+02  0.51100000000E-03 0. -1.
    9900012    2    1    2    0    0 -0.72924147174E+01 -0.35147473237E+02 -0.27213770148E+02  0.46142317932E+02  0.10000001558E+02 0.  0.
        -12    1    1    2    0    0  0.72924147174E+01  0.35147473237E+02  0.27213770148E+02  0.45045682068E+02  0.00000000000E+00 0.  1.
         11    1    3    3    0    0 -0.11075958880E+01 -0.15332441808E+02 -0.11752826209E+02  0.19350438357E+02  0.51100000000E-03 0. -1.
        -11    1    3    3    0    0 -0.18541521272E+01 -0.52695207789E+01 -0.71581422681E+00  0.56318841979E+01  0.51100000000E-03 0.  1.
         12    1    3    3    0    0 -0.43306667022E+01 -0.14545510650E+02 -0.14745129712E+02  0.21159995377E+02  0.00000000000E+00 0. -1.
</event>
<event>
 7    1  0.4119299E-008  0.4614232E+02  0.7816164E-02  0.1320468E+00
        -11   -1    0    0    0    0  0.00000000000E+00  0.00000000000E+00  0.45593999997E+02  0.45594000000E+02  0.51100000000E-03 0.  1.
         11   -1    0    0    0    0 -0.00000000000E+00 -0.00000000000E+00 -0.45593999997E+02  0.45594000000E+02  0.51100000000E-03 0. -1.
    9900012    2    1    2    0    0  0.23954580094E+02 -0.27823288163E+02  0.26098967507E+02  0.46142319001E+02  0.10000011307E+02 0.  0.
        -12    1    1    2    0    0 -0.23954580094E+02  0.27823288163E+02 -0.26098967507E+02  0.45045680999E+02  0.00000000000E+00 0.  1.
         11    1    3    3    0    0  0.82720742676E+01 -0.14686101092E+02  0.10315716571E+02  0.19761649389E+02  0.51100000000E-03 0. -1.
        -11    1    3    3    0    0  0.10523581157E+02 -0.92637254225E+01  0.75586922969E+01  0.15927843501E+02  0.51100000000E-03 0.  1.
        -12    1    3    3    0    0  0.51589246690E+01 -0.38734616494E+01  0.82245586401E+01  0.10452826111E+02  0.00000000000E+00 0.  1.
</event>
<event>
 7    1  0.4119299E-008  0.4614232E+02  0.7816164E-02  0.1320468E+00
        -11   -1    0    0    0    0  0.00000000000E+00  0.00000000000E+00  0.45593999997E+02  0.45594000000E+02  0.51100000000E-03 0. -1.
         11   -1    0    0    0    0 -0.00000000000E+00 -0.00000000000E+00 -0.45593999997E+02  0.45594000000E+02  0.51100000000E-03 0.  1.
    9900012    2    1    2    0    0  0.15613575968E+02  0.30438090872E+02  0.29306179324E+02  0.46142320107E+02  0.10000021389E+02 0.  0.
        -12    1    1    2    0    0 -0.15613575968E+02 -0.30438090872E+02 -0.29306179324E+02  0.45045679893E+02  0.00000000000E+00 0.  1.
         11    1    3    3    0    0  0.13044479805E+02  0.19675391071E+02  0.22049992447E+02  0.32302966340E+02  0.51100000000E-03 0. -1.
        -11    1    3    3    0    0  0.30052049090E+01  0.41403726214E+01  0.26572570254E+01  0.57649767691E+01  0.51100000000E-03 0.  1.
        -12    1    3    3    0    0 -0.43610874605E+00  0.66223271797E+01  0.45989298518E+01  0.80743769973E+01  0.00000000000E+00 0.  1.
</event>
<event>
 7    1  0.4119299E-008  0.4614232E+02  0.7816164E-02  0.1320468E+00
        -11   -1    0    0    0    0  0.00000000000E+00  0.00000000000E+00  0.45593999997E+02  0.45594000000E+02  0.51100000000E-03 0. -1.
         11   -1    0    0    0    0 -0.00000000000E+00 -0.00000000000E+00 -0.45593999997E+02  0.45594000000E+02  0.51100000000E-03 0.  1.
    9900012    2    1    2    0    0 -0.23186459936E+02 -0.10841173193E+02  0.37067106809E+02  0.46142319100E+02  0.10000012205E+02 0.  0.
        -12    1    1    2    0    0  0.23186459936E+02  0.10841173193E+02 -0.37067106809E+02  0.45045680900E+02  0.00000000000E+00 0.  1.
         11    1    3    3    0    0 -0.11751489558E+02 -0.93476880717E+01  0.15940853828E+02  0.21899488582E+02  0.51100000000E-03 0. -1.
        -11    1    3    3    0    0 -0.72743924211E+00  0.60060622592E+00  0.12137635435E+01  0.15372436014E+01  0.51100000000E-03 0.  1.
         12    1    3    3    0    0 -0.10707531136E+02 -0.20940913468E+01  0.19912489438E+02  0.22705586917E+02  0.00000000000E+00 0. -1.
</event>
<event>
 7    1  0.4119299E-008  0.4614232E+02  0.7816164E-02  0.1320468E+00
        -11   -1    0    0    0    0  0.00000000000E+00  0.00000000000E+00  0.45593999997E+02  0.45594000000E+02  0.51100000000E-03 0.  1.
         11   -1    0    0    0    0 -0.00000000000E+00 -0.00000000000E+00 -0.45593999997E+02  0.45594000000E+02  0.51100000000E-03 0. -1.
    9900012    2    1    2    0    0  0.19821607188E+02 -0.23314886406E+02 -0.33055006823E+02  0.46142317458E+02  0.99999972328E+01 0.  0.
        -12    1    1    2    0    0 -0.19821607188E+02  0.23314886406E+02  0.33055006823E+02  0.45045682542E+02  0.00000000000E+00 0.  1.
         11    1    3    3    0    0  0.46944690938E+01 -0.73599532052E+01 -0.60076588415E+01  0.10597118300E+02  0.51100000000E-03 0. -1.
        -11    1    3    3    0    0  0.18059076212E+01 -0.30140660953E+01 -0.89449933333E+01  0.96103487323E+01  0.51100000000E-03 0.  1.
         12    1    3    3    0    0  0.13321230473E+02 -0.12940867106E+02 -0.18102354648E+02  0.25934850425E+02  0.00000000000E+00 0. -1.
</event>
<event>
 7    1  0.4119299E-008  0.4614231E+02  0.7816164E-02  0.1320468E+00
        -11   -1    0    0    0    0  0.00000000000E+00  0.00000000000E+00  0.45593999997E+02  0.45594000000E+02  0.51100000000E-03 0. -1.
         11   -1    0    0    0    0 -0.00000000000E+00 -0.00000000000E+00 -0.45593999997E+02  0.45594000000E+02  0.51100000000E-03 0.  1.
    9900012    2    1    2    0    0  0.22235830041E+02  0.16157392923E+02  0.35687817094E+02  0.46142314605E+02  0.99999712244E+01 0.  0.
        -12    1    1    2    0    0 -0.22235830041E+02 -0.16157392923E+02 -0.35687817094E+02  0.45045685395E+02  0.00000000000E+00 0.  1.
         11    1    3    3    0    0  0.11882492974E+02  0.10115053112E+02  0.15780822399E+02  0.22193293910E+02  0.51100000000E-03 0. -1.
        -11    1    3    3    0    0 -0.39248547212E+00  0.15121593209E+01  0.33612067870E+01  0.37065323395E+01  0.51100000000E-03 0.  1.
        -12    1    3    3    0    0  0.10745822540E+02  0.45301804902E+01  0.16545787909E+02  0.20242488356E+02  0.00000000000E+00 0.  1.
</event>
<event>
 7    1  0.4119299E-008  0.4614232E+02  0.7816164E-02  0.1320468E+00
        -11   -1    0    0    0    0  0.00000000000E+00  0.00000000000E+00  0.45593999997E+02  0.45594000000E+02  0.51100000000E-03 0.  1.
         11   -1    0    0    0    0 -0.00000000000E+00 -0.00000000000E+00 -0.45593999997E+02  0.45594000000E+02  0.51100000000E-03 0. -1.
    9900012    2    1    2    0    0  0.68881814520E+01  0.21500072267E+02 -0.38979653519E+02  0.46142317192E+02  0.99999948079E+01 0.  0.
        -12    1    1    2    0    0 -0.68881814520E+01 -0.21500072267E+02  0.38979653519E+02  0.45045682808E+02  0.00000000000E+00 0.  1.
         11    1    3    3    0    0  0.25385592919E+01  0.49533084301E+01 -0.15389130500E+02  0.16364745201E+02  0.51100000000E-03 0. -1.
        -11    1    3    3    0    0  0.13144094758E+01  0.27995280954E+01 -0.89370637510E+01  0.94570681808E+01  0.51100000000E-03 0.  1.
        -12    1    3    3    0    0  0.30352126843E+01  0.13747235742E+02 -0.14653459268E+02  0.20320503810E+02  0.00000000000E+00 0.  1.
</event>
<event>
 7    1  0.4119299E-008  0.4614232E+02  0.7816164E-02  0.1320468E+00
        -11   -1    0    0    0    0  0.00000000000E+00  0.00000000000E+00  0.45593999997E+02  0.45594000000E+02  0.51100000000E-03 0. -1.
         11   -1    0    0    0    0 -0.00000000000E+00 -0.00000000000E+00 -0.45593999997E+02  0.45594000000E+02  0.51100000000E-03 0.  1.
    9900012    2    1    2    0    0  0.27717344950E+01  0.26477219534E+02  0.36337141015E+02  0.46142317815E+02  0.10000000491E+02 0.  0.
        -12    1    1    2    0    0 -0.27717344950E+01 -0.26477219534E+02 -0.36337141015E+02  0.45045682185E+02  0.00000000000E+00 0.  1.
         11    1    3    3    0    0  0.12855838909E+00  0.66740093894E+01  0.71181010429E+01  0.97583959393E+01  0.51100000000E-03 0. -1.
        -11    1    3    3    0    0  0.10077251497E+01  0.17163453110E+02  0.18639456780E+02  0.25358016128E+02  0.51100000000E-03 0.  1.
        -12    1    3    3    0    0  0.16354509563E+01  0.26397570346E+01  0.10579583192E+02  0.11025905748E+02  0.00000000000E+00 0.  1.
</event>
<event>
 7    1  0.4119299E-008  0.4614232E+02  0.7816164E-02  0.1320468E+00
        -11   -1    0    0    0    0  0.00000000000E+00  0.00000000000E+00  0.45593999997E+02  0.45594000000E+02  0.51100000000E-03 0.  1.
         11   -1    0    0    0    0 -0.00000000000E+00 -0.00000000000E+00 -0.45593999997E+02  0.45594000000E+02  0.51100000000E-03 0. -1.
    9900012    2    1    2    0    0  0.37748607504E+02  0.24121939524E+02 -0.47210276056E+01  0.46142318337E+02  0.10000005249E+02 0.  0.
        -12    1    1    2    0    0 -0.37748607504E+02 -0.24121939524E+02  0.47210276056E+01  0.45045681663E+02  0.00000000000E+00 0.  1.
         11    1    3    3    0    0  0.85277554804E+01  0.33140412696E+01 -0.42750220332E+01  0.10098578945E+02  0.51100000000E-03 0. -1.
        -11    1    3    3    0    0  0.66071286491E+01  0.31183588238E+01  0.44173289682E+00  0.73193878810E+01  0.51100000000E-03 0.  1.
         12    1    3    3    0    0  0.22613723374E+02  0.17689539430E+02 -0.88773846920E+00  0.28724351510E+02  0.00000000000E+00 0. -1.
</event>
<event>
 7    1  0.4119299E-008  0.4614232E+02  0.7816164E-02  0.1320468E+00
        -11   -1    0    0    0    0  0.00000000000E+00  0.00000000000E+00  0.45593999997E+02  0.45594000000E+02  0.51100000000E-03 0. -1.
         11   -1    0    0    0    0 -0.00000000000E+00 -0.00000000000E+00 -0.45593999997E+02  0.45594000000E+02  0.51100000000E-03 0.  1.
    9900012    2    1    2    0    0  0.58610472154E+01 -0.19540901849E+02  0.40161110162E+02  0.46142317754E+02  0.99999999357E+01 0.  0.
        -12    1    1    2    0    0 -0.58610472154E+01  0.19540901849E+02 -0.40161110162E+02  0.45045682246E+02  0.00000000000E+00 0.  1.
         11    1    3    3    0    0  0.49471158772E+01 -0.14130872469E+02  0.26685030998E+02  0.30598143601E+02  0.51100000000E-03 0. -1.
        -11    1    3    3    0    0  0.70564432072E+00 -0.64020968897E+01  0.97705913545E+01  0.11702531101E+02  0.51100000000E-03 0.  1.
        -12    1    3    3    0    0  0.20828701750E+00  0.99206750979E+00  0.37054878102E+01  0.38416430518E+01  0.00000000000E+00 0.  1.
</event>
<event>
 7    1  0.4119299E-008  0.4614232E+02  0.7816164E-02  0.1320468E+00
        -11   -1    0    0    0    0  0.00000000000E+00  0.00000000000E+00  0.45593999997E+02  0.45594000000E+02  0.51100000000E-03 0.  1.
         11   -1    0    0    0    0 -0.00000000000E+00 -0.00000000000E+00 -0.45593999997E+02  0.45594000000E+02  0.51100000000E-03 0. -1.
    9900012    2    1    2    0    0  0.21750169200E+02  0.20588121920E+02 -0.33647772623E+02  0.46142320663E+02  0.10000026465E+02 0.  0.
        -12    1    1    2    0    0 -0.21750169200E+02 -0.20588121920E+02  0.33647772623E+02  0.45045679337E+02  0.00000000000E+00 0.  1.
         11    1    3    3    0    0  0.71132204755E+01  0.75324618841E+01 -0.15743450228E+02  0.18846541139E+02  0.51100000000E-03 0. -1.
        -11    1    3    3    0    0  0.21772484079E+01  0.44364255978E+01 -0.72503003518E+01  0.87743454552E+01  0.51100000000E-03 0.  1.
        -12    1    3    3    0    0  0.12459700317E+02  0.86192344383E+01 -0.10654022043E+02  0.18521434069E+02  0.00000000000E+00 0.  1.
</event>
<event>
 7    1  0.4119299E-008  0.4614232E+02  0.7816164E-02  0.1320468E+00
        -11   -1    0    0    0    0  0.00000000000E+00  0.00000000000E+00  0.45593999997E+02  0.45594000000E+02  0.51100000000E-03 0.  1.
         11   -1    0    0    0    0 -0.00000000000E+00 -0.00000000000E+00 -0.45593999997E+02  0.45594000000E+02  0.51100000000E-03 0. -1.
    9900012    2    1    2    0    0  0.23237075392E+02 -0.34527018258E+02 -0.17234756861E+02  0.46142317559E+02  0.99999981546E+01 0.  0.
        -12    1    1    2    0    0 -0.23237075392E+02  0.34527018258E+02  0.17234756861E+02  0.45045682441E+02  0.00000000000E+00 0.  1.
         11    1    3    3    0    0  0.52353435344E+01 -0.69579992999E+01 -0.59372611085E+01  0.10539148254E+02  0.51100000000E-03 0. -1.
        -11    1    3    3    0    0 -0.13994580146E+00 -0.19488920030E+01 -0.21489455440E+01  0.29044331769E+01  0.51100000000E-03 0.  1.
         12    1    3    3    0    0  0.18141677659E+02 -0.25620126955E+02 -0.91485502083E+01  0.32698736128E+02  0.00000000000E+00 0. -1.
</event>
<event>
 7    1  0.4119299E-008  0.4614232E+02  0.7816164E-02  0.1320468E+00
        -11   -1    0    0    0    0  0.00000000000E+00  0.00000000000E+00  0.45593999997E+02  0.45594000000E+02  0.51100000000E-03 0. -1.
         11   -1    0    0    0    0 -0.00000000000E+00 -0.00000000000E+00 -0.45593999997E+02  0.45594000000E+02  0.51100000000E-03 0.  1.
    9900012    2    1    2    0    0  0.12049782237E+02  0.38314300394E+02  0.20394378549E+02  0.46142317154E+02  0.99999944678E+01 0.  0.
        -12    1    1    2    0    0 -0.12049782237E+02 -0.38314300394E+02 -0.20394378549E+02  0.45045682846E+02  0.00000000000E+00 0.  1.
         11    1    3    3    0    0  0.70425942249E+01  0.13806379038E+02  0.11850550608E+02  0.19510248218E+02  0.51100000000E-03 0. -1.
        -11    1    3    3    0    0  0.13028161147E+01  0.27502498312E+01  0.24655783445E+00  0.30531942273E+01  0.51100000000E-03 0.  1.
        -12    1    3    3    0    0  0.37043718971E+01  0.21757671524E+02  0.82972701066E+01  0.23578874709E+02  0.00000000000E+00 0.  1.
</event>
<event>
 7    1  0.4119299E-008  0.4614232E+02  0.7816164E-02  0.1320468E+00
        -11   -1    0    0    0    0  0.00000000000E+00  0.00000000000E+00  0.45593999997E+02  0.45594000000E+02  0.51100000000E-03 0.  1.
         11   -1    0    0    0    0 -0.00000000000E+00 -0.00000000000E+00 -0.45593999997E+02  0.45594000000E+02  0.51100000000E-03 0. -1.
    9900012    2    1    2    0    0 -0.35239469661E+01  0.34569961369E+02 -0.28663793576E+02  0.46142317705E+02  0.99999994911E+01 0.  0.
        -12    1    1    2    0    0  0.35239469661E+01 -0.34569961369E+02  0.28663793576E+02  0.45045682295E+02  0.00000000000E+00 0.  1.
         11    1    3    3    0    0 -0.26809178407E+01  0.15040894461E+02 -0.11380369495E+02  0.19050685992E+02  0.51100000000E-03 0. -1.
        -11    1    3    3    0    0  0.13637658772E+01  0.75701440500E+01 -0.28140065672E+01  0.81905782169E+01  0.51100000000E-03 0.  1.
        -12    1    3    3    0    0 -0.22067950026E+01  0.11958922857E+02 -0.14469417514E+02  0.18901053497E+02  0.00000000000E+00 0.  1.
</event>
<event>
 7    1  0.4119299E-008  0.4614232E+02  0.7816164E-02  0.1320468E+00
        -11   -1    0    0    0    0  0.00000000000E+00  0.00000000000E+00  0.45593999997E+02  0.45594000000E+02  0.51100000000E-03 0.  1.
         11   -1    0    0    0    0 -0.00000000000E+00 -0.00000000000E+00 -0.45593999997E+02  0.45594000000E+02  0.51100000000E-03 0. -1.
    9900012    2    1    2    0    0  0.32723865381E+02  0.79798421092E+01 -0.29909601168E+02  0.46142317770E+02  0.10000000080E+02 0.  0.
        -12    1    1    2    0    0 -0.32723865381E+02 -0.79798421092E+01  0.29909601168E+02  0.45045682230E+02  0.00000000000E+00 0.  1.
         11    1    3    3    0    0  0.15850489194E+02  0.59069050253E+01 -0.20445035257E+02  0.26535429176E+02  0.51100000000E-03 0. -1.
        -11    1    3    3    0    0  0.37561983513E+01  0.14496103482E+01 -0.25488544630E+01  0.47651920791E+01  0.51100000000E-03 0.  1.
         12    1    3    3    0    0  0.13117177836E+02  0.62332673564E+00 -0.69157114480E+01  0.14841696515E+02  0.00000000000E+00 0. -1.
</event>
<event>
 7    1  0.4119299E-008  0.4614232E+02  0.7816164E-02  0.1320468E+00
        -11   -1    0    0    0    0  0.00000000000E+00  0.00000000000E+00  0.45593999997E+02  0.45594000000E+02  0.51100000000E-03 0.  1.
         11   -1    0    0    0    0 -0.00000000000E+00 -0.00000000000E+00 -0.45593999997E+02  0.45594000000E+02  0.51100000000E-03 0. -1.
    9900012    2    1    2    0    0 -0.29455010290E+02 -0.32036132065E+02  0.11627646482E+02  0.46142317059E+02  0.99999935990E+01 0.  0.
        -12    1    1    2    0    0  0.29455010290E+02  0.32036132065E+02 -0.11627646482E+02  0.45045682941E+02  0.00000000000E+00 0.  1.
         11    1    3    3    0    0 -0.18365115793E+02 -0.18085457279E+02  0.63308376946E+01  0.26541302705E+02  0.51100000000E-03 0. -1.
        -11    1    3    3    0    0 -0.90875735943E+01 -0.10133937917E+02  0.12167437512E+01  0.13666058582E+02  0.51100000000E-03 0.  1.
        -12    1    3    3    0    0 -0.20023209029E+01 -0.38167368686E+01  0.40800650363E+01  0.59349557726E+01  0.00000000000E+00 0.  1.
</event>
<event>
 7    1  0.4119299E-008  0.4614232E+02  0.7816164E-02  0.1320468E+00
        -11   -1    0    0    0    0  0.00000000000E+00  0.00000000000E+00  0.45593999997E+02  0.45594000000E+02  0.51100000000E-03 0. -1.
         11   -1    0    0    0    0 -0.00000000000E+00 -0.00000000000E+00 -0.45593999997E+02  0.45594000000E+02  0.51100000000E-03 0.  1.
    9900012    2    1    2    0    0  0.21533625445E+02  0.68649907554E+01  0.38965217579E+02  0.46142319809E+02  0.10000018674E+02 0.  0.
        -12    1    1    2    0    0 -0.21533625445E+02 -0.68649907554E+01 -0.38965217579E+02  0.45045680191E+02  0.00000000000E+00 0.  1.
         11    1    3    3    0    0  0.14312171058E+00  0.29317890970E+00  0.16873582433E+01  0.17186086813E+01  0.51100000000E-03 0. -1.
        -11    1    3    3    0    0  0.12105574636E+02 -0.80202664065E+00  0.16192027675E+02  0.20232892638E+02  0.51100000000E-03 0.  1.
         12    1    3    3    0    0  0.92849290991E+01  0.73738384863E+01  0.21085831660E+02  0.24190818490E+02  0.00000000000E+00 0. -1.
</event>
<event>
 7    1  0.4119299E-008  0.4614232E+02  0.7816164E-02  0.1320468E+00
        -11   -1    0    0    0    0  0.00000000000E+00  0.00000000000E+00  0.45593999997E+02  0.45594000000E+02  0.51100000000E-03 0. -1.
         11   -1    0    0    0    0 -0.00000000000E+00 -0.00000000000E+00 -0.45593999997E+02  0.45594000000E+02  0.51100000000E-03 0.  1.
    9900012    2    1    2    0    0 -0.29531032112E+02 -0.31017643815E+02  0.13962001250E+02  0.46142316918E+02  0.99999923081E+01 0.  0.
        -12    1    1    2    0    0  0.29531032112E+02  0.31017643815E+02 -0.13962001250E+02  0.45045683082E+02  0.00000000000E+00 0.  1.
         11    1    3    3    0    0 -0.24281251309E+00 -0.12029746738E+01 -0.45749037089E+00  0.13097342031E+01  0.51100000000E-03 0. -1.
        -11    1    3    3    0    0 -0.22633850835E+02 -0.18123369054E+02  0.10070095814E+02  0.30694535987E+02  0.51100000000E-03 0.  1.
         12    1    3    3    0    0 -0.66543687635E+01 -0.11691300087E+02  0.43493958069E+01  0.14138046727E+02  0.00000000000E+00 0. -1.
</event>
<event>
 7    1  0.4119299E-008  0.4614232E+02  0.7816164E-02  0.1320468E+00
        -11   -1    0    0    0    0  0.00000000000E+00  0.00000000000E+00  0.45593999997E+02  0.45594000000E+02  0.51100000000E-03 0.  1.
         11   -1    0    0    0    0 -0.00000000000E+00 -0.00000000000E+00 -0.45593999997E+02  0.45594000000E+02  0.51100000000E-03 0. -1.
    9900012    2    1    2    0    0 -0.94212666770E+00  0.11927758102E+02 -0.43427577510E+02  0.46142317583E+02  0.99999983800E+01 0.  0.
        -12    1    1    2    0    0  0.94212666770E+00 -0.11927758102E+02  0.43427577510E+02  0.45045682417E+02  0.00000000000E+00 0.  1.
         11    1    3    3    0    0 -0.15249702285E+01  0.25958452491E+01 -0.16433806672E+02  0.16707302258E+02  0.51100000000E-03 0.  1.
        -11    1    3    3    0    0  0.37755725173E+01  0.53637244695E+01 -0.16920095576E+02  0.18147014151E+02  0.51100000000E-03 0. -1.
        -12    1    3    3    0    0 -0.31927289565E+01  0.39681883838E+01 -0.10073675262E+02  0.11288001174E+02  0.00000000000E+00 0.  1.
</event>
<event>
 7    1  0.4119299E-008  0.4614232E+02  0.7816164E-02  0.1320468E+00
        -11   -1    0    0    0    0  0.00000000000E+00  0.00000000000E+00  0.45593999997E+02  0.45594000000E+02  0.51100000000E-03 0.  1.
         11   -1    0    0    0    0 -0.00000000000E+00 -0.00000000000E+00 -0.45593999997E+02  0.45594000000E+02  0.51100000000E-03 0. -1.
    9900012    2    1    2    0    0 -0.15540291766E+02  0.76389433497E+01 -0.41584365098E+02  0.46142317141E+02  0.99999943428E+01 0.  0.
        -12    1    1    2    0    0  0.15540291766E+02 -0.76389433497E+01  0.41584365098E+02  0.45045682859E+02  0.00000000000E+00 0.  1.
         11    1    3    3    0    0 -0.15470353610E+02  0.60121262231E+01 -0.39992621295E+02  0.43299968370E+02  0.51100000000E-03 0. -1.
        -11    1    3    3    0    0 -0.56063943766E+00 -0.18104103726E-01 -0.10334891044E+00  0.57037320768E+00  0.51100000000E-03 0.  1.
         12    1    3    3    0    0  0.49070128248E+00  0.16449212303E+01 -0.14883948928E+01  0.22719755632E+01  0.00000000000E+00 0. -1.
</event>
<event>
 7    1  0.4119299E-008  0.4614232E+02  0.7816164E-02  0.1320468E+00
        -11   -1    0    0    0    0  0.00000000000E+00  0.00000000000E+00  0.45593999997E+02  0.45594000000E+02  0.51100000000E-03 0. -1.
         11   -1    0    0    0    0 -0.00000000000E+00 -0.00000000000E+00 -0.45593999997E+02  0.45594000000E+02  0.51100000000E-03 0.  1.
    9900012    2    1    2    0    0 -0.82222986794E+01  0.44285190642E+02 -0.57382448873E+00  0.46142316741E+02  0.99999906968E+01 0.  0.
        -12    1    1    2    0    0  0.82222986794E+01 -0.44285190642E+02  0.57382448873E+00  0.45045683259E+02  0.00000000000E+00 0.  1.
         11    1    3    3    0    0 -0.25461113978E+01  0.24427086220E+02  0.42243459275E+00  0.24563055097E+02  0.51100000000E-03 0. -1.
        -11    1    3    3    0    0  0.52149843359E-01  0.49586572448E+01 -0.24860556653E+01  0.55472041885E+01  0.51100000000E-03 0.  1.
        -12    1    3    3    0    0 -0.57283371249E+01  0.14899447177E+02  0.14897965838E+01  0.16032057455E+02  0.00000000000E+00 0.  1.
</event>
<event>
 7    1  0.4119299E-008  0.4614232E+02  0.7816164E-02  0.1320468E+00
        -11   -1    0    0    0    0  0.00000000000E+00  0.00000000000E+00  0.45593999997E+02  0.45594000000E+02  0.51100000000E-03 0.  1.
         11   -1    0    0    0    0 -0.00000000000E+00 -0.00000000000E+00 -0.45593999997E+02  0.45594000000E+02  0.51100000000E-03 0. -1.
    9900012    2    1    2    0    0 -0.12683735504E+02 -0.22944293755E+02 -0.36630530245E+02  0.46142317540E+02  0.99999979846E+01 0.  0.
        -12    1    1    2    0    0  0.12683735504E+02  0.22944293755E+02  0.36630530245E+02  0.45045682460E+02  0.00000000000E+00 0.  1.
         11    1    3    3    0    0 -0.23520656486E+01 -0.34242006898E+01 -0.77595642647E+01  0.88016021847E+01  0.51100000000E-03 0. -1.
        -11    1    3    3    0    0  0.95595027906E+00 -0.49367182080E-01 -0.37272768246E+00  0.10272313474E+01  0.51100000000E-03 0.  1.
        -12    1    3    3    0    0 -0.11287620134E+02 -0.19470725884E+02 -0.28498238298E+02  0.36313484008E+02  0.00000000000E+00 0.  1.
</event>
<event>
 7    1  0.4119299E-008  0.4614232E+02  0.7816164E-02  0.1320468E+00
        -11   -1    0    0    0    0  0.00000000000E+00  0.00000000000E+00  0.45593999997E+02  0.45594000000E+02  0.51100000000E-03 0.  1.
         11   -1    0    0    0    0 -0.00000000000E+00 -0.00000000000E+00 -0.45593999997E+02  0.45594000000E+02  0.51100000000E-03 0. -1.
    9900012    2    1    2    0    0  0.38165239758E+02  0.99977266944E+01 -0.21738754355E+02  0.46142317569E+02  0.99999982439E+01 0.  0.
        -12    1    1    2    0    0 -0.38165239758E+02 -0.99977266944E+01  0.21738754355E+02  0.45045682431E+02  0.00000000000E+00 0.  1.
         11    1    3    3    0    0  0.35421465304E+01  0.27300853222E+01 -0.91166311173E+00  0.45641316589E+01  0.51100000000E-03 0. -1.
        -11    1    3    3    0    0  0.88444199901E+01  0.48010013440E+01 -0.65435293332E+01  0.12003797535E+02  0.51100000000E-03 0.  1.
         12    1    3    3    0    0  0.25778673237E+02  0.24666400283E+01 -0.14283561910E+02  0.29574388375E+02  0.00000000000E+00 0. -1.
</event>
<event>
 7    1  0.4119299E-008  0.4614232E+02  0.7816164E-02  0.1320468E+00
        -11   -1    0    0    0    0  0.00000000000E+00  0.00000000000E+00  0.45593999997E+02  0.45594000000E+02  0.51100000000E-03 0.  1.
         11   -1    0    0    0    0 -0.00000000000E+00 -0.00000000000E+00 -0.45593999997E+02  0.45594000000E+02  0.51100000000E-03 0. -1.
    9900012    2    1    2    0    0  0.11266005663E+02 -0.28152821459E+01 -0.43523153508E+02  0.46142316651E+02  0.99999898732E+01 0.  0.
        -12    1    1    2    0    0 -0.11266005663E+02  0.28152821459E+01  0.43523153508E+02  0.45045683349E+02  0.00000000000E+00 0.  1.
         11    1    3    3    0    0  0.58274739502E+00  0.65003782816E+00 -0.10202364257E+01  0.13427681594E+01  0.51100000000E-03 0. -1.
        -11    1    3    3    0    0  0.28710752487E+01 -0.53923151746E+01 -0.18904298813E+02  0.19866873179E+02  0.51100000000E-03 0.  1.
         12    1    3    3    0    0  0.78121830192E+01  0.19269952006E+01 -0.23598618269E+02  0.24932675312E+02  0.00000000000E+00 0. -1.
</event>
<event>
 7    1  0.4119299E-008  0.4614232E+02  0.7816164E-02  0.1320468E+00
        -11   -1    0    0    0    0  0.00000000000E+00  0.00000000000E+00  0.45593999997E+02  0.45594000000E+02  0.51100000000E-03 0.  1.
         11   -1    0    0    0    0 -0.00000000000E+00 -0.00000000000E+00 -0.45593999997E+02  0.45594000000E+02  0.51100000000E-03 0. -1.
    9900012    2    1    2    0    0  0.32686705201E+01  0.22088680834E+02 -0.39121854574E+02  0.46142317263E+02  0.99999954549E+01 0.  0.
        -12    1    1    2    0    0 -0.32686705201E+01 -0.22088680834E+02  0.39121854574E+02  0.45045682737E+02  0.00000000000E+00 0.  1.
         11    1    3    3    0    0 -0.12386425768E+00  0.48882712667E+01 -0.38881964700E+01  0.62472882422E+01  0.51100000000E-03 0. -1.
        -11    1    3    3    0    0  0.56222036785E+00  0.27549160203E+00  0.81634794746E-01  0.63138883871E+00  0.51100000000E-03 0.  1.
        -12    1    3    3    0    0  0.28303144099E+01  0.16924917966E+02 -0.35315292899E+02  0.39263640182E+02  0.00000000000E+00 0.  1.
</event>
<event>
 7    1  0.4119299E-008  0.4614232E+02  0.7816164E-02  0.1320468E+00
        -11   -1    0    0    0    0  0.00000000000E+00  0.00000000000E+00  0.45593999997E+02  0.45594000000E+02  0.51100000000E-03 0.  1.
         11   -1    0    0    0    0 -0.00000000000E+00 -0.00000000000E+00 -0.45593999997E+02  0.45594000000E+02  0.51100000000E-03 0. -1.
    9900012    2    1    2    0    0  0.77248144791E+01 -0.34644041546E+02 -0.27735017840E+02  0.46142316656E+02  0.99999899213E+01 0.  0.
        -12    1    1    2    0    0 -0.77248144791E+01  0.34644041546E+02  0.27735017840E+02  0.45045683344E+02  0.00000000000E+00 0.  1.
         11    1    3    3    0    0  0.49566338976E+01 -0.28863739852E+02 -0.23734438603E+02  0.37696250131E+02  0.51100000000E-03 0. -1.
        -11    1    3    3    0    0 -0.22762797012E+00 -0.38814401643E+01 -0.22212647665E+01  0.44778800415E+01  0.51100000000E-03 0.  1.
        -12    1    3    3    0    0  0.29958085516E+01 -0.18988615296E+01 -0.17793144701E+01  0.39681864837E+01  0.00000000000E+00 0.  1.
</event>
<event>
 7    1  0.4119299E-008  0.4614232E+02  0.7816164E-02  0.1320468E+00
        -11   -1    0    0    0    0  0.00000000000E+00  0.00000000000E+00  0.45593999997E+02  0.45594000000E+02  0.51100000000E-03 0. -1.
         11   -1    0    0    0    0 -0.00000000000E+00 -0.00000000000E+00 -0.45593999997E+02  0.45594000000E+02  0.51100000000E-03 0.  1.
    9900012    2    1    2    0    0  0.59322550700E+01  0.42896748112E+02  0.12401244582E+02  0.46142317455E+02  0.99999972093E+01 0.  0.
        -12    1    1    2    0    0 -0.59322550700E+01 -0.42896748112E+02 -0.12401244582E+02  0.45045682545E+02  0.00000000000E+00 0.  1.
         11    1    3    3    0    0  0.18568650415E+01  0.26729752362E+01 -0.51938015010E+00  0.32958307598E+01  0.51100000000E-03 0. -1.
        -11    1    3    3    0    0 -0.85783907356E+00  0.14229185076E+01  0.23074201749E-01  0.16616611073E+01  0.51100000000E-03 0.  1.
         12    1    3    3    0    0  0.49332291020E+01  0.38800854368E+02  0.12897550530E+02  0.41184825588E+02  0.00000000000E+00 0. -1.
</event>
<event>
 7    1  0.4119299E-008  0.4614232E+02  0.7816164E-02  0.1320468E+00
        -11   -1    0    0    0    0  0.00000000000E+00  0.00000000000E+00  0.45593999997E+02  0.45594000000E+02  0.51100000000E-03 0.  1.
         11   -1    0    0    0    0 -0.00000000000E+00 -0.00000000000E+00 -0.45593999997E+02  0.45594000000E+02  0.51100000000E-03 0. -1.
    9900012    2    1    2    0    0  0.19087651147E+02 -0.38941681369E+02 -0.12178695027E+02  0.46142316670E+02  0.99999900482E+01 0.  0.
        -12    1    1    2    0    0 -0.19087651147E+02  0.38941681369E+02  0.12178695027E+02  0.45045683330E+02  0.00000000000E+00 0.  1.
         11    1    3    3    0    0  0.79068824818E+01 -0.17610772899E+02 -0.16669429968E+01  0.19376191883E+02  0.51100000000E-03 0. -1.
        -11    1    3    3    0    0  0.83460967873E-01  0.19811383143E+00  0.18951263524E+00  0.28658353651E+00  0.51100000000E-03 0.  1.
         12    1    3    3    0    0  0.11097307697E+02 -0.21529022301E+02 -0.10701264666E+02  0.26479541250E+02  0.00000000000E+00 0. -1.
</event>
<event>
 7    1  0.4119299E-008  0.4614232E+02  0.7816164E-02  0.1320468E+00
        -11   -1    0    0    0    0  0.00000000000E+00  0.00000000000E+00  0.45593999997E+02  0.45594000000E+02  0.51100000000E-03 0.  1.
         11   -1    0    0    0    0 -0.00000000000E+00 -0.00000000000E+00 -0.45593999997E+02  0.45594000000E+02  0.51100000000E-03 0. -1.
    9900012    2    1    2    0    0 -0.20600589250E+02  0.39180898302E+01 -0.39867001379E+02  0.46142317584E+02  0.99999983846E+01 0.  0.
        -12    1    1    2    0    0  0.20600589250E+02 -0.39180898302E+01  0.39867001379E+02  0.45045682416E+02  0.00000000000E+00 0.  1.
         11    1    3    3    0    0 -0.14912585510E+02  0.25780939822E+01 -0.30721769139E+02  0.34247027236E+02  0.51100000000E-03 0. -1.
        -11    1    3    3    0    0  0.35224741650E+00  0.11769559935E+01 -0.31596674549E+01  0.33901035883E+01  0.51100000000E-03 0.  1.
        -12    1    3    3    0    0 -0.60402511563E+01  0.16303985457E+00 -0.59855647850E+01  0.85051867599E+01  0.00000000000E+00 0.  1.
</event>
<event>
 7    1  0.4119299E-008  0.4614232E+02  0.7816164E-02  0.1320468E+00
        -11   -1    0    0    0    0  0.00000000000E+00  0.00000000000E+00  0.45593999997E+02  0.45594000000E+02  0.51100000000E-03 0.  1.
         11   -1    0    0    0    0 -0.00000000000E+00 -0.00000000000E+00 -0.45593999997E+02  0.45594000000E+02  0.51100000000E-03 0. -1.
    9900012    2    1    2    0    0  0.42184985882E+02  0.13985650703E+02 -0.73445186442E+01  0.46142318591E+02  0.10000007571E+02 0.  0.
        -12    1    1    2    0    0 -0.42184985882E+02 -0.13985650703E+02  0.73445186442E+01  0.45045681409E+02  0.00000000000E+00 0.  1.
         11    1    3    3    0    0  0.19487205039E+02  0.38575660333E+01 -0.59371101531E+01  0.20733577915E+02  0.51100000000E-03 0. -1.
        -11    1    3    3    0    0  0.21095386526E+02  0.84719354969E+01 -0.24781737869E+01  0.22867670833E+02  0.51100000000E-03 0.  1.
        -12    1    3    3    0    0  0.16023943169E+01  0.16561491728E+01  0.10707652957E+01  0.25410698432E+01  0.00000000000E+00 0.  1.
</event>
<event>
 7    1  0.4119299E-008  0.4614232E+02  0.7816164E-02  0.1320468E+00
        -11   -1    0    0    0    0  0.00000000000E+00  0.00000000000E+00  0.45593999997E+02  0.45594000000E+02  0.51100000000E-03 0.  1.
         11   -1    0    0    0    0 -0.00000000000E+00 -0.00000000000E+00 -0.45593999997E+02  0.45594000000E+02  0.51100000000E-03 0. -1.
    9900012    2    1    2    0    0 -0.13521649616E+01  0.22390995144E+02 -0.39063134405E+02  0.46142317819E+02  0.10000000527E+02 0.  0.
        -12    1    1    2    0    0  0.13521649616E+01 -0.22390995144E+02  0.39063134405E+02  0.45045682181E+02  0.00000000000E+00 0.  1.
         11    1    3    3    0    0 -0.75861796434E+00 -0.20694217820E+00 -0.38620638363E+01  0.39413022743E+01  0.51100000000E-03 0. -1.
        -11    1    3    3    0    0 -0.30660051804E+01  0.12326423816E+02 -0.18602715143E+02  0.22525588179E+02  0.51100000000E-03 0.  1.
        -12    1    3    3    0    0  0.24724581832E+01  0.10271513506E+02 -0.16598355426E+02  0.19675427365E+02  0.00000000000E+00 0.  1.
</event>
<event>
 7    1  0.4119299E-008  0.4614232E+02  0.7816164E-02  0.1320468E+00
        -11   -1    0    0    0    0  0.00000000000E+00  0.00000000000E+00  0.45593999997E+02  0.45594000000E+02  0.51100000000E-03 0.  1.
         11   -1    0    0    0    0 -0.00000000000E+00 -0.00000000000E+00 -0.45593999997E+02  0.45594000000E+02  0.51100000000E-03 0. -1.
    9900012    2    1    2    0    0 -0.15204930057E+02  0.41491314371E+02 -0.87403875989E+01  0.46142318280E+02  0.10000004728E+02 0.  0.
        -12    1    1    2    0    0  0.15204930057E+02 -0.41491314371E+02  0.87403875989E+01  0.45045681720E+02  0.00000000000E+00 0.  1.
         11    1    3    3    0    0 -0.70843102448E+01  0.21157551746E+02 -0.59312310310E+01  0.23086986579E+02  0.51100000000E-03 0. -1.
        -11    1    3    3    0    0 -0.67969293760E+01  0.20348348596E+02 -0.21066513213E+01  0.21556704748E+02  0.51100000000E-03 0.  1.
         12    1    3    3    0    0 -0.13236904362E+01 -0.14585970529E-01 -0.70250524668E+00  0.14986269526E+01  0.00000000000E+00 0. -1.
</event>
<event>
 7    1  0.4119299E-008  0.4614232E+02  0.7816164E-02  0.1320468E+00
        -11   -1    0    0    0    0  0.00000000000E+00  0.00000000000E+00  0.45593999997E+02  0.45594000000E+02  0.51100000000E-03 0.  1.
         11   -1    0    0    0    0 -0.00000000000E+00 -0.00000000000E+00 -0.45593999997E+02  0.45594000000E+02  0.51100000000E-03 0. -1.
    9900012    2    1    2    0    0 -0.11683194870E+01 -0.23825777239E+02 -0.38211004047E+02  0.46142318057E+02  0.10000002694E+02 0.  0.
        -12    1    1    2    0    0  0.11683194870E+01  0.23825777239E+02  0.38211004047E+02  0.45045681943E+02  0.00000000000E+00 0.  1.
         11    1    3    3    0    0  0.30057361395E+01 -0.15308615385E+02 -0.25149013574E+02  0.29594949548E+02  0.51100000000E-03 0. -1.
        -11    1    3    3    0    0 -0.90855904179E+00 -0.10301405659E+01 -0.45389757056E+01  0.47422536662E+01  0.51100000000E-03 0.  1.
        -12    1    3    3    0    0 -0.32654965847E+01 -0.74870212873E+01 -0.85230147679E+01  0.11805114842E+02  0.00000000000E+00 0.  1.
</event>
<event>
 7    1  0.4119299E-008  0.4614232E+02  0.7816164E-02  0.1320468E+00
        -11   -1    0    0    0    0  0.00000000000E+00  0.00000000000E+00  0.45593999997E+02  0.45594000000E+02  0.51100000000E-03 0.  1.
         11   -1    0    0    0    0 -0.00000000000E+00 -0.00000000000E+00 -0.45593999997E+02  0.45594000000E+02  0.51100000000E-03 0. -1.
    9900012    2    1    2    0    0  0.11875578677E+02  0.15791027691E+02 -0.40481200135E+02  0.46142317756E+02  0.99999999572E+01 0.  0.
        -12    1    1    2    0    0 -0.11875578677E+02 -0.15791027691E+02  0.40481200135E+02  0.45045682244E+02  0.00000000000E+00 0.  1.
         11    1    3    3    0    0  0.20254197095E+01  0.16745328543E+01 -0.10465384507E+01  0.28287149502E+01  0.51100000000E-03 0. -1.
        -11    1    3    3    0    0  0.72851652974E+01  0.62698106388E+01 -0.22799567270E+02  0.24742765141E+02  0.51100000000E-03 0.  1.
         12    1    3    3    0    0  0.25649936700E+01  0.78466841982E+01 -0.16635094414E+02  0.18570837665E+02  0.00000000000E+00 0. -1.
</event>
<event>
 7    1  0.4119299E-008  0.4614232E+02  0.7816164E-02  0.1320468E+00
        -11   -1    0    0    0    0  0.00000000000E+00  0.00000000000E+00  0.45593999997E+02  0.45594000000E+02  0.51100000000E-03 0.  1.
         11   -1    0    0    0    0 -0.00000000000E+00 -0.00000000000E+00 -0.45593999997E+02  0.45594000000E+02  0.51100000000E-03 0. -1.
    9900012    2    1    2    0    0 -0.17761571013E+01  0.10067210112E+02 -0.43870377518E+02  0.46142317887E+02  0.10000001146E+02 0.  0.
        -12    1    1    2    0    0  0.17761571013E+01 -0.10067210112E+02  0.43870377518E+02  0.45045682113E+02  0.00000000000E+00 0.  1.
         11    1    3    3    0    0  0.16438797022E+01  0.29442924651E+01 -0.16552671724E+02  0.16892665274E+02  0.51100000000E-03 0. -1.
        -11    1    3    3    0    0 -0.12249024948E+01  0.79556207044E+01 -0.22344241986E+02  0.23749893413E+02  0.51100000000E-03 0.  1.
        -12    1    3    3    0    0 -0.21951343087E+01 -0.83270305696E+00 -0.49734638078E+01  0.54997592004E+01  0.00000000000E+00 0.  1.
</event>
<event>
 7    1  0.4119299E-008  0.4614232E+02  0.7816164E-02  0.1320468E+00
        -11   -1    0    0    0    0  0.00000000000E+00  0.00000000000E+00  0.45593999997E+02  0.45594000000E+02  0.51100000000E-03 0. -1.
         11   -1    0    0    0    0 -0.00000000000E+00 -0.00000000000E+00 -0.45593999997E+02  0.45594000000E+02  0.51100000000E-03 0.  1.
    9900012    2    1    2    0    0 -0.27006933988E+02  0.22362710167E+02  0.28278050285E+02  0.46142318549E+02  0.10000007185E+02 0.  0.
        -12    1    1    2    0    0  0.27006933988E+02 -0.22362710167E+02 -0.28278050285E+02  0.45045681451E+02  0.00000000000E+00 0.  1.
         11    1    3    3    0    0 -0.95301472402E+01  0.56468599940E+01  0.43626574849E+01  0.11905608544E+02  0.51100000000E-03 0.  1.
        -11    1    3    3    0    0 -0.15702974454E+02  0.13242442603E+02  0.19199443790E+02  0.28116975921E+02  0.51100000000E-03 0. -1.
         12    1    3    3    0    0 -0.17738122936E+01  0.34734075694E+01  0.47159490099E+01  0.61197340841E+01  0.00000000000E+00 0. -1.
</event>
<event>
 7    1  0.4119299E-008  0.4614232E+02  0.7816164E-02  0.1320468E+00
        -11   -1    0    0    0    0  0.00000000000E+00  0.00000000000E+00  0.45593999997E+02  0.45594000000E+02  0.51100000000E-03 0. -1.
         11   -1    0    0    0    0 -0.00000000000E+00 -0.00000000000E+00 -0.45593999997E+02  0.45594000000E+02  0.51100000000E-03 0.  1.
    9900012    2    1    2    0    0  0.37840813083E+01  0.42852482257E+02  0.13358859530E+02  0.46142316135E+02  0.99999851703E+01 0.  0.
        -12    1    1    2    0    0 -0.37840813083E+01 -0.42852482257E+02 -0.13358859530E+02  0.45045683865E+02  0.00000000000E+00 0.  1.
         11    1    3    3    0    0 -0.15605734629E+01  0.14932999655E+02  0.69146073241E+01  0.16530023078E+02  0.51100000000E-03 0. -1.
        -11    1    3    3    0    0  0.20038220099E+01  0.25739157239E+01  0.14240201313E+01  0.35592384574E+01  0.51100000000E-03 0.  1.
        -12    1    3    3    0    0  0.33408327612E+01  0.25345566878E+02  0.50202320743E+01  0.26053054600E+02  0.00000000000E+00 0.  1.
</event>
<event>
 7    1  0.4119299E-008  0.4614232E+02  0.7816164E-02  0.1320468E+00
        -11   -1    0    0    0    0  0.00000000000E+00  0.00000000000E+00  0.45593999997E+02  0.45594000000E+02  0.51100000000E-03 0. -1.
         11   -1    0    0    0    0 -0.00000000000E+00 -0.00000000000E+00 -0.45593999997E+02  0.45594000000E+02  0.51100000000E-03 0.  1.
    9900012    2    1    2    0    0  0.29435001447E+02  0.21760823286E+02  0.26251870339E+02  0.46142318336E+02  0.10000005242E+02 0.  0.
        -12    1    1    2    0    0 -0.29435001447E+02 -0.21760823286E+02 -0.26251870339E+02  0.45045681664E+02  0.00000000000E+00 0.  1.
         11    1    3    3    0    0  0.93654518978E+01  0.98082475476E+01  0.86251237518E+01  0.16071906209E+02  0.51100000000E-03 0. -1.
        -11    1    3    3    0    0  0.28962841557E+01  0.38355477191E+00  0.69662489732E-01  0.29224012895E+01  0.51100000000E-03 0.  1.
        -12    1    3    3    0    0  0.17173265393E+02  0.11569020967E+02  0.17557084098E+02  0.27148010837E+02  0.00000000000E+00 0.  1.
</event>
<event>
 7    1  0.4119299E-008  0.4614232E+02  0.7816164E-02  0.1320468E+00
        -11   -1    0    0    0    0  0.00000000000E+00  0.00000000000E+00  0.45593999997E+02  0.45594000000E+02  0.51100000000E-03 0. -1.
         11   -1    0    0    0    0 -0.00000000000E+00 -0.00000000000E+00 -0.45593999997E+02  0.45594000000E+02  0.51100000000E-03 0.  1.
    9900012    2    1    2    0    0  0.68463650157E+01 -0.41950831958E+02 -0.14912026364E+02  0.46142317119E+02  0.99999941492E+01 0.  0.
        -12    1    1    2    0    0 -0.68463650157E+01  0.41950831958E+02  0.14912026364E+02  0.45045682881E+02  0.00000000000E+00 0.  1.
         11    1    3    3    0    0  0.40868278314E+00 -0.85166939480E+00  0.39397048292E+00  0.10235112983E+01  0.51100000000E-03 0. -1.
        -11    1    3    3    0    0  0.60710074146E+01 -0.22016756196E+02 -0.11824435758E+02  0.25717930821E+02  0.51100000000E-03 0.  1.
        -12    1    3    3    0    0  0.36667481796E+00 -0.19082406367E+02 -0.34815610888E+01  0.19400875000E+02  0.00000000000E+00 0.  1.
</event>
<event>
 7    1  0.4119299E-008  0.4614232E+02  0.7816164E-02  0.1320468E+00
        -11   -1    0    0    0    0  0.00000000000E+00  0.00000000000E+00  0.45593999997E+02  0.45594000000E+02  0.51100000000E-03 0.  1.
         11   -1    0    0    0    0 -0.00000000000E+00 -0.00000000000E+00 -0.45593999997E+02  0.45594000000E+02  0.51100000000E-03 0. -1.
    9900012    2    1    2    0    0 -0.19836301807E+01  0.11491539104E+02 -0.43510036246E+02  0.46142317479E+02  0.99999974268E+01 0.  0.
        -12    1    1    2    0    0  0.19836301807E+01 -0.11491539104E+02  0.43510036246E+02  0.45045682521E+02  0.00000000000E+00 0.  1.
         11    1    3    3    0    0  0.84794238359E+00  0.77565388557E+01 -0.26164791384E+02  0.27303465159E+02  0.51100000000E-03 0. -1.
        -11    1    3    3    0    0  0.29364963718E+00 -0.10446342966E+01 -0.83597822858E+00  0.13697995411E+01  0.51100000000E-03 0.  1.
         12    1    3    3    0    0 -0.31252222014E+01  0.47796345445E+01 -0.16509266634E+02  0.17469052778E+02  0.00000000000E+00 0. -1.
</event>
<event>
 7    1  0.4119299E-008  0.4614232E+02  0.7816164E-02  0.1320468E+00
        -11   -1    0    0    0    0  0.00000000000E+00  0.00000000000E+00  0.45593999997E+02  0.45594000000E+02  0.51100000000E-03 0.  1.
         11   -1    0    0    0    0 -0.00000000000E+00 -0.00000000000E+00 -0.45593999997E+02  0.45594000000E+02  0.51100000000E-03 0. -1.
    9900012    2    1    2    0    0  0.20767508204E+02 -0.39250129655E+02 -0.75664333507E+01  0.46142323308E+02  0.10000050585E+02 0.  0.
        -12    1    1    2    0    0 -0.20767508204E+02  0.39250129655E+02  0.75664333507E+01  0.45045676692E+02  0.00000000000E+00 0.  1.
         11    1    3    3    0    0  0.10170286549E+02 -0.24326920122E+02 -0.31335265706E+00  0.26369147906E+02  0.51100000000E-03 0. -1.
        -11    1    3    3    0    0  0.57963696045E+01 -0.75651183319E+01 -0.46854384674E+01  0.10619898769E+02  0.51100000000E-03 0.  1.
         12    1    3    3    0    0  0.48008520511E+01 -0.73580912006E+01 -0.25676422263E+01  0.91532766338E+01  0.00000000000E+00 0. -1.
</event>
<event>
 7    1  0.4119299E-008  0.4614232E+02  0.7816164E-02  0.1320468E+00
        -11   -1    0    0    0    0  0.00000000000E+00  0.00000000000E+00  0.45593999997E+02  0.45594000000E+02  0.51100000000E-03 0.  1.
         11   -1    0    0    0    0 -0.00000000000E+00 -0.00000000000E+00 -0.45593999997E+02  0.45594000000E+02  0.51100000000E-03 0. -1.
    9900012    2    1    2    0    0  0.27838198096E+02  0.18845934340E+02 -0.29982977912E+02  0.46142317867E+02  0.10000000962E+02 0.  0.
        -12    1    1    2    0    0 -0.27838198096E+02 -0.18845934340E+02  0.29982977912E+02  0.45045682133E+02  0.00000000000E+00 0.  1.
         11    1    3    3    0    0  0.84388433816E+00  0.19036966295E+01 -0.16858969397E+01  0.26792630303E+01  0.51100000000E-03 0.  1.
        -11    1    3    3    0    0  0.10080687566E+02  0.88483130445E+01 -0.16685268509E+02  0.21408201490E+02  0.51100000000E-03 0. -1.
        -12    1    3    3    0    0  0.16913626192E+02  0.80939246660E+01 -0.11611812463E+02  0.22054853347E+02  0.00000000000E+00 0.  1.
</event>
<event>
 7    1  0.4119299E-008  0.4614232E+02  0.7816164E-02  0.1320468E+00
        -11   -1    0    0    0    0  0.00000000000E+00  0.00000000000E+00  0.45593999997E+02  0.45594000000E+02  0.51100000000E-03 0. -1.
         11   -1    0    0    0    0 -0.00000000000E+00 -0.00000000000E+00 -0.45593999997E+02  0.45594000000E+02  0.51100000000E-03 0.  1.
    9900012    2    1    2    0    0 -0.12504611491E+02 -0.14106070874E+02  0.40911696990E+02  0.46142317692E+02  0.99999993659E+01 0.  0.
        -12    1    1    2    0    0  0.12504611491E+02  0.14106070874E+02 -0.40911696990E+02  0.45045682308E+02  0.00000000000E+00 0.  1.
         11    1    3    3    0    0 -0.52349489025E+01 -0.28698711730E+01  0.11127166542E+02  0.12627536818E+02  0.51100000000E-03 0. -1.
        -11    1    3    3    0    0 -0.44217280713E+01 -0.13736504528E+01  0.13426625237E+02  0.14202565269E+02  0.51100000000E-03 0.  1.
        -12    1    3    3    0    0 -0.28479345169E+01 -0.98625492486E+01  0.16357905210E+02  0.19312215605E+02  0.00000000000E+00 0.  1.
</event>
<event>
 7    1  0.4119299E-008  0.4614232E+02  0.7816164E-02  0.1320468E+00
        -11   -1    0    0    0    0  0.00000000000E+00  0.00000000000E+00  0.45593999997E+02  0.45594000000E+02  0.51100000000E-03 0.  1.
         11   -1    0    0    0    0 -0.00000000000E+00 -0.00000000000E+00 -0.45593999997E+02  0.45594000000E+02  0.51100000000E-03 0. -1.
    9900012    2    1    2    0    0 -0.10021977724E+02  0.36316891998E+02 -0.24693255608E+02  0.46142317028E+02  0.99999933152E+01 0.  0.
        -12    1    1    2    0    0  0.10021977724E+02 -0.36316891998E+02  0.24693255608E+02  0.45045682972E+02  0.00000000000E+00 0.  1.
         11    1    3    3    0    0 -0.16397775564E+01  0.14408920235E+02 -0.11565329385E+02  0.18548927107E+02  0.51100000000E-03 0. -1.
        -11    1    3    3    0    0 -0.46172430014E+00 -0.36901100401E+00 -0.57448069193E+00  0.82424922017E+00  0.51100000000E-03 0.  1.
         12    1    3    3    0    0 -0.79204758679E+01  0.22276982767E+02 -0.12553445531E+02  0.26769140701E+02  0.00000000000E+00 0. -1.
</event>
<event>
 7    1  0.4119299E-008  0.4614232E+02  0.7816164E-02  0.1320468E+00
        -11   -1    0    0    0    0  0.00000000000E+00  0.00000000000E+00  0.45593999997E+02  0.45594000000E+02  0.51100000000E-03 0. -1.
         11   -1    0    0    0    0 -0.00000000000E+00 -0.00000000000E+00 -0.45593999997E+02  0.45594000000E+02  0.51100000000E-03 0.  1.
    9900012    2    1    2    0    0  0.28568928897E+01 -0.33997087677E+02  0.29413426761E+02  0.46142317839E+02  0.10000000713E+02 0.  0.
        -12    1    1    2    0    0 -0.28568928897E+01  0.33997087677E+02 -0.29413426761E+02  0.45045682161E+02  0.00000000000E+00 0.  1.
         11    1    3    3    0    0  0.35152704342E+01 -0.21923891190E+02  0.21138819099E+02  0.30657198246E+02  0.51100000000E-03 0. -1.
        -11    1    3    3    0    0  0.20330329775E+01 -0.30604614800E+01  0.25807513112E+01  0.44899805289E+01  0.51100000000E-03 0.  1.
         12    1    3    3    0    0 -0.26914105220E+01 -0.90127350070E+01  0.56938563510E+01  0.10995139065E+02  0.00000000000E+00 0. -1.
</event>
<event>
 7    1  0.4119299E-008  0.4614232E+02  0.7816164E-02  0.1320468E+00
        -11   -1    0    0    0    0  0.00000000000E+00  0.00000000000E+00  0.45593999997E+02  0.45594000000E+02  0.51100000000E-03 0. -1.
         11   -1    0    0    0    0 -0.00000000000E+00 -0.00000000000E+00 -0.45593999997E+02  0.45594000000E+02  0.51100000000E-03 0.  1.
    9900012    2    1    2    0    0  0.30393675265E+02 -0.32847071771E+02  0.51388825244E+01  0.46142315039E+02  0.99999751759E+01 0.  0.
        -12    1    1    2    0    0 -0.30393675265E+02  0.32847071771E+02 -0.51388825244E+01  0.45045684961E+02  0.00000000000E+00 0.  1.
         11    1    3    3    0    0  0.12261806721E+02 -0.12907922158E+02  0.19423129261E+01  0.17909185863E+02  0.51100000000E-03 0. -1.
        -11    1    3    3    0    0  0.21376846260E+01 -0.24706399687E+00  0.18340466467E+01  0.28274482386E+01  0.51100000000E-03 0.  1.
        -12    1    3    3    0    0  0.15994183918E+02 -0.19692085616E+02  0.13625229516E+01  0.25405680937E+02  0.00000000000E+00 0.  1.
</event>
<event>
 7    1  0.4119299E-008  0.4614232E+02  0.7816164E-02  0.1320468E+00
        -11   -1    0    0    0    0  0.00000000000E+00  0.00000000000E+00  0.45593999997E+02  0.45594000000E+02  0.51100000000E-03 0.  1.
         11   -1    0    0    0    0 -0.00000000000E+00 -0.00000000000E+00 -0.45593999997E+02  0.45594000000E+02  0.51100000000E-03 0. -1.
    9900012    2    1    2    0    0 -0.41359394834E+02  0.17480422767E+02 -0.35984507272E+01  0.46142316869E+02  0.99999918621E+01 0.  0.
        -12    1    1    2    0    0  0.41359394834E+02 -0.17480422767E+02  0.35984507272E+01  0.45045683131E+02  0.00000000000E+00 0.  1.
         11    1    3    3    0    0 -0.68985545665E+01  0.18731467595E+01  0.80545078968E+00  0.71935724870E+01  0.51100000000E-03 0. -1.
        -11    1    3    3    0    0 -0.17505559107E+02  0.43708003570E+01 -0.45492071171E+01  0.18607626959E+02  0.51100000000E-03 0.  1.
         12    1    3    3    0    0 -0.16955281161E+02  0.11236475650E+02  0.14530560019E+00  0.20341117423E+02  0.00000000000E+00 0. -1.
</event>
<event>
 7    1  0.4119299E-008  0.4614232E+02  0.7816164E-02  0.1320468E+00
        -11   -1    0    0    0    0  0.00000000000E+00  0.00000000000E+00  0.45593999997E+02  0.45594000000E+02  0.51100000000E-03 0. -1.
         11   -1    0    0    0    0 -0.00000000000E+00 -0.00000000000E+00 -0.45593999997E+02  0.45594000000E+02  0.51100000000E-03 0.  1.
    9900012    2    1    2    0    0 -0.35575256072E+02 -0.27155267777E+02 -0.51094150221E+01  0.46142317249E+02  0.99999953315E+01 0.  0.
        -12    1    1    2    0    0  0.35575256072E+02  0.27155267777E+02  0.51094150221E+01  0.45045682751E+02  0.00000000000E+00 0.  1.
         11    1    3    3    0    0 -0.15206328546E+02 -0.15405630193E+02 -0.35694117041E+01  0.21938700273E+02  0.51100000000E-03 0. -1.
        -11    1    3    3    0    0 -0.10394884358E+02 -0.52834314757E+01  0.19336242312E+01  0.11819778843E+02  0.51100000000E-03 0.  1.
        -12    1    3    3    0    0 -0.99740431682E+01 -0.64662061081E+01 -0.34736275492E+01  0.12383838133E+02  0.00000000000E+00 0.  1.
</event>
<event>
 7    1  0.4119299E-008  0.4614232E+02  0.7816164E-02  0.1320468E+00
        -11   -1    0    0    0    0  0.00000000000E+00  0.00000000000E+00  0.45593999997E+02  0.45594000000E+02  0.51100000000E-03 0. -1.
         11   -1    0    0    0    0 -0.00000000000E+00 -0.00000000000E+00 -0.45593999997E+02  0.45594000000E+02  0.51100000000E-03 0.  1.
    9900012    2    1    2    0    0  0.22294867377E+02  0.36740849288E+02  0.13496746177E+02  0.46142320128E+02  0.10000021583E+02 0.  0.
        -12    1    1    2    0    0 -0.22294867377E+02 -0.36740849288E+02 -0.13496746177E+02  0.45045679872E+02  0.00000000000E+00 0.  1.
         11    1    3    3    0    0  0.28885739944E+01  0.36085385050E+01  0.30210743406E+01  0.55219833661E+01  0.51100000000E-03 0. -1.
        -11    1    3    3    0    0  0.40748456205E+01  0.21172524666E+01  0.19426981219E+01  0.49861007905E+01  0.51100000000E-03 0.  1.
         12    1    3    3    0    0  0.15331447762E+02  0.31015058316E+02  0.85329737146E+01  0.35634235971E+02  0.00000000000E+00 0. -1.
</event>
<event>
 7    1  0.4119299E-008  0.4614232E+02  0.7816164E-02  0.1320468E+00
        -11   -1    0    0    0    0  0.00000000000E+00  0.00000000000E+00  0.45593999997E+02  0.45594000000E+02  0.51100000000E-03 0.  1.
         11   -1    0    0    0    0 -0.00000000000E+00 -0.00000000000E+00 -0.45593999997E+02  0.45594000000E+02  0.51100000000E-03 0. -1.
    9900012    2    1    2    0    0 -0.30079809702E+02  0.15115246930E+02 -0.29930717484E+02  0.46142317736E+02  0.99999997746E+01 0.  0.
        -12    1    1    2    0    0  0.30079809702E+02 -0.15115246930E+02  0.29930717484E+02  0.45045682264E+02  0.00000000000E+00 0.  1.
         11    1    3    3    0    0 -0.19449693334E+02  0.74090372097E+01 -0.13593180509E+02  0.24858780336E+02  0.51100000000E-03 0. -1.
        -11    1    3    3    0    0 -0.27466915451E+01  0.29432688503E+00 -0.25732706955E+01  0.37752702013E+01  0.51100000000E-03 0.  1.
        -12    1    3    3    0    0 -0.78834248228E+01  0.74118828357E+01 -0.13764266280E+02  0.17508267200E+02  0.00000000000E+00 0.  1.
</event>
<event>
 7    1  0.4119299E-008  0.4614232E+02  0.7816164E-02  0.1320468E+00
        -11   -1    0    0    0    0  0.00000000000E+00  0.00000000000E+00  0.45593999997E+02  0.45594000000E+02  0.51100000000E-03 0.  1.
         11   -1    0    0    0    0 -0.00000000000E+00 -0.00000000000E+00 -0.45593999997E+02  0.45594000000E+02  0.51100000000E-03 0. -1.
    9900012    2    1    2    0    0  0.11710714761E+02  0.29724375577E+02 -0.31755852030E+02  0.46142317834E+02  0.10000000665E+02 0.  0.
        -12    1    1    2    0    0 -0.11710714761E+02 -0.29724375577E+02  0.31755852030E+02  0.45045682166E+02  0.00000000000E+00 0.  1.
         11    1    3    3    0    0  0.13319760101E+01  0.15946518124E+02 -0.13027898728E+02  0.20634721852E+02  0.51100000000E-03 0. -1.
        -11    1    3    3    0    0  0.75966931469E+01  0.10992436657E+02 -0.13955761823E+02  0.19321146414E+02  0.51100000000E-03 0.  1.
         12    1    3    3    0    0  0.27820456035E+01  0.27854207964E+01 -0.47721914792E+01  0.61864495688E+01  0.00000000000E+00 0. -1.
</event>
<event>
 7    1  0.4119299E-008  0.4614232E+02  0.7816164E-02  0.1320468E+00
        -11   -1    0    0    0    0  0.00000000000E+00  0.00000000000E+00  0.45593999997E+02  0.45594000000E+02  0.51100000000E-03 0.  1.
         11   -1    0    0    0    0 -0.00000000000E+00 -0.00000000000E+00 -0.45593999997E+02  0.45594000000E+02  0.51100000000E-03 0. -1.
    9900012    2    1    2    0    0  0.20878565961E+02  0.35421534130E+02 -0.18398749556E+02  0.46142316722E+02  0.99999905275E+01 0.  0.
        -12    1    1    2    0    0 -0.20878565961E+02 -0.35421534130E+02  0.18398749556E+02  0.45045683278E+02  0.00000000000E+00 0.  1.
         11    1    3    3    0    0  0.17298441761E+02  0.23996446537E+02 -0.15430398953E+02  0.33364093662E+02  0.51100000000E-03 0. -1.
        -11    1    3    3    0    0  0.14671642566E+01  0.22527399967E+01  0.52339263225E+00  0.27388589882E+01  0.51100000000E-03 0.  1.
         12    1    3    3    0    0  0.21129599430E+01  0.91723475965E+01 -0.34917432351E+01  0.10039364072E+02  0.00000000000E+00 0. -1.
</event>
<event>
 7    1  0.4119299E-008  0.4614232E+02  0.7816164E-02  0.1320468E+00
        -11   -1    0    0    0    0  0.00000000000E+00  0.00000000000E+00  0.45593999997E+02  0.45594000000E+02  0.51100000000E-03 0. -1.
         11   -1    0    0    0    0 -0.00000000000E+00 -0.00000000000E+00 -0.45593999997E+02  0.45594000000E+02  0.51100000000E-03 0.  1.
    9900012    2    1    2    0    0  0.25828099437E+02  0.15742482841E+01  0.36872000788E+02  0.46142318517E+02  0.10000006890E+02 0.  0.
        -12    1    1    2    0    0 -0.25828099437E+02 -0.15742482841E+01 -0.36872000788E+02  0.45045681483E+02  0.00000000000E+00 0.  1.
         11    1    3    3    0    0  0.13834800044E+02 -0.35651007350E+00  0.17502805520E+02  0.22313157397E+02  0.51100000000E-03 0. -1.
        -11    1    3    3    0    0  0.23175061975E+01  0.10885291323E+01  0.10042424504E+02  0.10363687607E+02  0.51100000000E-03 0.  1.
        -12    1    3    3    0    0  0.96757931955E+01  0.84222922532E+00  0.93267707644E+01  0.13465473513E+02  0.00000000000E+00 0.  1.
</event>
<event>
 7    1  0.4119299E-008  0.4614232E+02  0.7816164E-02  0.1320468E+00
        -11   -1    0    0    0    0  0.00000000000E+00  0.00000000000E+00  0.45593999997E+02  0.45594000000E+02  0.51100000000E-03 0.  1.
         11   -1    0    0    0    0 -0.00000000000E+00 -0.00000000000E+00 -0.45593999997E+02  0.45594000000E+02  0.51100000000E-03 0. -1.
    9900012    2    1    2    0    0 -0.38205572050E+02  0.14277017921E+02 -0.19121050953E+02  0.46142316900E+02  0.99999921485E+01 0.  0.
        -12    1    1    2    0    0  0.38205572050E+02 -0.14277017921E+02  0.19121050953E+02  0.45045683100E+02  0.00000000000E+00 0.  1.
         11    1    3    3    0    0 -0.66850964097E+01  0.41493676874E+01 -0.55688067513E+01  0.96394696486E+01  0.51100000000E-03 0. -1.
        -11    1    3    3    0    0 -0.10186459931E+02  0.11499775676E+01 -0.13569581380E+01  0.10340587506E+02  0.51100000000E-03 0.  1.
         12    1    3    3    0    0 -0.21334015710E+02  0.89776726655E+01 -0.12195286063E+02  0.26162259745E+02  0.00000000000E+00 0. -1.
</event>
<event>
 7    1  0.4119299E-008  0.4614232E+02  0.7816164E-02  0.1320468E+00
        -11   -1    0    0    0    0  0.00000000000E+00  0.00000000000E+00  0.45593999997E+02  0.45594000000E+02  0.51100000000E-03 0.  1.
         11   -1    0    0    0    0 -0.00000000000E+00 -0.00000000000E+00 -0.45593999997E+02  0.45594000000E+02  0.51100000000E-03 0. -1.
    9900012    2    1    2    0    0  0.22781122059E+01 -0.18940761734E+02 -0.40806509287E+02  0.46142318181E+02  0.10000003832E+02 0.  0.
        -12    1    1    2    0    0 -0.22781122059E+01  0.18940761734E+02  0.40806509287E+02  0.45045681819E+02  0.00000000000E+00 0.  1.
         11    1    3    3    0    0  0.47645232034E+00 -0.89950701137E+01 -0.16123991341E+02  0.18469471844E+02  0.51100000000E-03 0. -1.
        -11    1    3    3    0    0 -0.23319274732E+00 -0.76647582782E+01 -0.96150624026E+01  0.12298468343E+02  0.51100000000E-03 0.  1.
        -12    1    3    3    0    0  0.20348526329E+01 -0.22809333421E+01 -0.15067455544E+02  0.15374377994E+02  0.00000000000E+00 0.  1.
</event>
<event>
 7    1  0.4119299E-008  0.4614232E+02  0.7816164E-02  0.1320468E+00
        -11   -1    0    0    0    0  0.00000000000E+00  0.00000000000E+00  0.45593999997E+02  0.45594000000E+02  0.51100000000E-03 0.  1.
         11   -1    0    0    0    0 -0.00000000000E+00 -0.00000000000E+00 -0.45593999997E+02  0.45594000000E+02  0.51100000000E-03 0. -1.
    9900012    2    1    2    0    0 -0.17839512312E+01 -0.68511630272E+01 -0.44485867890E+02  0.46142319200E+02  0.10000013122E+02 0.  0.
        -12    1    1    2    0    0  0.17839512312E+01  0.68511630272E+01  0.44485867890E+02  0.45045680800E+02  0.00000000000E+00 0.  1.
         11    1    3    3    0    0 -0.90969590297E+00 -0.18014834498E+01 -0.16065724867E+02  0.16191985827E+02  0.51100000000E-03 0. -1.
        -11    1    3    3    0    0  0.18738096370E+01 -0.32364983967E+01 -0.47170828190E+01  0.60197138645E+01  0.51100000000E-03 0.  1.
        -12    1    3    3    0    0 -0.27480649652E+01 -0.18131811807E+01 -0.23703060204E+02  0.23930619508E+02  0.00000000000E+00 0.  1.
</event>
<event>
 7    1  0.4119299E-008  0.4614232E+02  0.7816164E-02  0.1320468E+00
        -11   -1    0    0    0    0  0.00000000000E+00  0.00000000000E+00  0.45593999997E+02  0.45594000000E+02  0.51100000000E-03 0. -1.
         11   -1    0    0    0    0 -0.00000000000E+00 -0.00000000000E+00 -0.45593999997E+02  0.45594000000E+02  0.51100000000E-03 0.  1.
    9900012    2    1    2    0    0  0.34722669885E+02 -0.17377381167E+02  0.22835856603E+02  0.46142317333E+02  0.99999960955E+01 0.  0.
        -12    1    1    2    0    0 -0.34722669885E+02  0.17377381167E+02 -0.22835856603E+02  0.45045682667E+02  0.00000000000E+00 0.  1.
         11    1    3    3    0    0  0.83757269074E+01 -0.54254913631E+01  0.48812131230E+01  0.11109230377E+02  0.51100000000E-03 0. -1.
        -11    1    3    3    0    0  0.14001888248E+01 -0.65427180469E+00  0.40183153294E+01  0.43052826489E+01  0.51100000000E-03 0.  1.
         12    1    3    3    0    0  0.24946754152E+02 -0.11297618000E+02  0.13936328151E+02  0.30727804307E+02  0.00000000000E+00 0. -1.
</event>
<event>
 7    1  0.4119299E-008  0.4614232E+02  0.7816164E-02  0.1320468E+00
        -11   -1    0    0    0    0  0.00000000000E+00  0.00000000000E+00  0.45593999997E+02  0.45594000000E+02  0.51100000000E-03 0.  1.
         11   -1    0    0    0    0 -0.00000000000E+00 -0.00000000000E+00 -0.45593999997E+02  0.45594000000E+02  0.51100000000E-03 0. -1.
    9900012    2    1    2    0    0 -0.26156981832E+02  0.35786006342E+02 -0.80179571333E+01  0.46142316688E+02  0.99999902123E+01 0.  0.
        -12    1    1    2    0    0  0.26156981832E+02 -0.35786006342E+02  0.80179571333E+01  0.45045683312E+02  0.00000000000E+00 0.  1.
         11    1    3    3    0    0 -0.10019946326E+02  0.10582091971E+02 -0.43874873969E+01  0.15219396860E+02  0.51100000000E-03 0. -1.
        -11    1    3    3    0    0  0.26846242506E+00  0.34327652822E+01 -0.22242878509E+00  0.34504237974E+01  0.51100000000E-03 0.  1.
         12    1    3    3    0    0 -0.16405497931E+02  0.21771149089E+02 -0.34080409513E+01  0.27472496030E+02  0.00000000000E+00 0. -1.
</event>
<event>
 7    1  0.4119299E-008  0.4614232E+02  0.7816164E-02  0.1320468E+00
        -11   -1    0    0    0    0  0.00000000000E+00  0.00000000000E+00  0.45593999997E+02  0.45594000000E+02  0.51100000000E-03 0.  1.
         11   -1    0    0    0    0 -0.00000000000E+00 -0.00000000000E+00 -0.45593999997E+02  0.45594000000E+02  0.51100000000E-03 0. -1.
    9900012    2    1    2    0    0 -0.32488315863E+02  0.28237668310E+02 -0.13276176944E+02  0.46142318149E+02  0.10000003535E+02 0.  0.
        -12    1    1    2    0    0  0.32488315863E+02 -0.28237668310E+02  0.13276176944E+02  0.45045681851E+02  0.00000000000E+00 0.  1.
         11    1    3    3    0    0  0.23444856558E+00 -0.18614047265E+00 -0.87922596084E-01  0.31200168186E+00  0.51100000000E-03 0. -1.
        -11    1    3    3    0    0 -0.15747456088E+01  0.10892164394E+01 -0.22801747709E+01  0.29774844133E+01  0.51100000000E-03 0.  1.
         12    1    3    3    0    0 -0.31148018820E+02  0.27334592343E+02 -0.10908079577E+02  0.42852832054E+02  0.00000000000E+00 0. -1.
</event>
<event>
 7    1  0.4119299E-008  0.4614232E+02  0.7816164E-02  0.1320468E+00
        -11   -1    0    0    0    0  0.00000000000E+00  0.00000000000E+00  0.45593999997E+02  0.45594000000E+02  0.51100000000E-03 0.  1.
         11   -1    0    0    0    0 -0.00000000000E+00 -0.00000000000E+00 -0.45593999997E+02  0.45594000000E+02  0.51100000000E-03 0. -1.
    9900012    2    1    2    0    0  0.34544351776E+02 -0.28871882190E+02  0.14885903835E+01  0.46142315167E+02  0.99999763413E+01 0.  0.
        -12    1    1    2    0    0 -0.34544351776E+02  0.28871882190E+02 -0.14885903835E+01  0.45045684833E+02  0.00000000000E+00 0.  1.
         11    1    3    3    0    0  0.13978630690E+02 -0.66208500797E+01  0.31126672010E+01  0.15777403751E+02  0.51100000000E-03 0.  1.
        -11    1    3    3    0    0  0.67355693616E+01 -0.68826602822E+01 -0.97909728387E+00  0.96797489088E+01  0.51100000000E-03 0. -1.
        -12    1    3    3    0    0  0.13830151724E+02 -0.15368371828E+02 -0.64497953368E+00  0.20685162507E+02  0.00000000000E+00 0.  1.
</event>
<event>
 7    1  0.4119299E-008  0.4614232E+02  0.7816164E-02  0.1320468E+00
        -11   -1    0    0    0    0  0.00000000000E+00  0.00000000000E+00  0.45593999997E+02  0.45594000000E+02  0.51100000000E-03 0.  1.
         11   -1    0    0    0    0 -0.00000000000E+00 -0.00000000000E+00 -0.45593999997E+02  0.45594000000E+02  0.51100000000E-03 0. -1.
    9900012    2    1    2    0    0  0.27190598635E+02  0.12786111273E+02 -0.33560395911E+02  0.46142317973E+02  0.10000001930E+02 0.  0.
        -12    1    1    2    0    0 -0.27190598635E+02 -0.12786111273E+02  0.33560395911E+02  0.45045682027E+02  0.00000000000E+00 0.  1.
         11    1    3    3    0    0  0.85434716397E+01  0.29286535578E+01 -0.50329708731E+01  0.10339183497E+02  0.51100000000E-03 0.  1.
        -11    1    3    3    0    0  0.83134302688E+01  0.65952325393E+01 -0.11772886633E+02  0.15849639586E+02  0.51100000000E-03 0. -1.
         12    1    3    3    0    0  0.10333696726E+02  0.32622251762E+01 -0.16754538405E+02  0.19953494889E+02  0.00000000000E+00 0. -1.
</event>
<event>
 7    1  0.4119299E-008  0.4614232E+02  0.7816164E-02  0.1320468E+00
        -11   -1    0    0    0    0  0.00000000000E+00  0.00000000000E+00  0.45593999997E+02  0.45594000000E+02  0.51100000000E-03 0.  1.
         11   -1    0    0    0    0 -0.00000000000E+00 -0.00000000000E+00 -0.45593999997E+02  0.45594000000E+02  0.51100000000E-03 0. -1.
    9900012    2    1    2    0    0  0.39272494289E+02  0.13581235725E+02 -0.17387775353E+02  0.46142317596E+02  0.99999984970E+01 0.  0.
        -12    1    1    2    0    0 -0.39272494289E+02 -0.13581235725E+02  0.17387775353E+02  0.45045682404E+02  0.00000000000E+00 0.  1.
         11    1    3    3    0    0  0.26798977598E+02  0.74598027317E+01 -0.12069200123E+02  0.30323249314E+02  0.51100000000E-03 0. -1.
        -11    1    3    3    0    0  0.60380671068E+01  0.28555276185E+01  0.28033471702E+00  0.66851237970E+01  0.51100000000E-03 0.  1.
         12    1    3    3    0    0  0.64354495845E+01  0.32659053752E+01 -0.55989099466E+01  0.91339444855E+01  0.00000000000E+00 0. -1.
</event>
<event>
 7    1  0.4119299E-008  0.4614232E+02  0.7816164E-02  0.1320468E+00
        -11   -1    0    0    0    0  0.00000000000E+00  0.00000000000E+00  0.45593999997E+02  0.45594000000E+02  0.51100000000E-03 0.  1.
         11   -1    0    0    0    0 -0.00000000000E+00 -0.00000000000E+00 -0.45593999997E+02  0.45594000000E+02  0.51100000000E-03 0. -1.
    9900012    2    1    2    0    0 -0.32286290517E+02  0.18279965803E+02 -0.25545093589E+02  0.46142317504E+02  0.99999976515E+01 0.  0.
        -12    1    1    2    0    0  0.32286290517E+02 -0.18279965803E+02  0.25545093589E+02  0.45045682496E+02  0.00000000000E+00 0.  1.
         11    1    3    3    0    0 -0.87115112213E+01  0.45915665078E+01 -0.31171706488E+01  0.10329068877E+02  0.51100000000E-03 0.  1.
        -11    1    3    3    0    0 -0.67342451396E+01  0.13369699739E+01 -0.73280104123E+01  0.10041776893E+02  0.51100000000E-03 0. -1.
         12    1    3    3    0    0 -0.16840534156E+02  0.12351429321E+02 -0.15099912528E+02  0.25771471733E+02  0.00000000000E+00 0. -1.
</event>
<event>
 7    1  0.4119299E-008  0.4614232E+02  0.7816164E-02  0.1320468E+00
        -11   -1    0    0    0    0  0.00000000000E+00  0.00000000000E+00  0.45593999997E+02  0.45594000000E+02  0.51100000000E-03 0.  1.
         11   -1    0    0    0    0 -0.00000000000E+00 -0.00000000000E+00 -0.45593999997E+02  0.45594000000E+02  0.51100000000E-03 0. -1.
    9900012    2    1    2    0    0  0.29669911735E+02 -0.23091891214E+02 -0.24810770135E+02  0.46142318555E+02  0.10000007238E+02 0.  0.
        -12    1    1    2    0    0 -0.29669911735E+02  0.23091891214E+02  0.24810770135E+02  0.45045681445E+02  0.00000000000E+00 0.  1.
         11    1    3    3    0    0  0.15512879387E+02 -0.85246945162E+01 -0.10213213974E+02  0.20435987459E+02  0.51100000000E-03 0. -1.
        -11    1    3    3    0    0  0.20235184706E+01 -0.33628724836E+01 -0.43268359085E+00  0.39485128457E+01  0.51100000000E-03 0.  1.
         12    1    3    3    0    0  0.12133513877E+02 -0.11204324214E+02 -0.14164872570E+02  0.21757818250E+02  0.00000000000E+00 0. -1.
</event>
<event>
 7    1  0.4119299E-008  0.4614232E+02  0.7816164E-02  0.1320468E+00
        -11   -1    0    0    0    0  0.00000000000E+00  0.00000000000E+00  0.45593999997E+02  0.45594000000E+02  0.51100000000E-03 0.  1.
         11   -1    0    0    0    0 -0.00000000000E+00 -0.00000000000E+00 -0.45593999997E+02  0.45594000000E+02  0.51100000000E-03 0. -1.
    9900012    2    1    2    0    0  0.44794353269E+02  0.44792943159E+01  0.15859704292E+01  0.46142318025E+02  0.10000002409E+02 0.  0.
        -12    1    1    2    0    0 -0.44794353269E+02 -0.44792943159E+01 -0.15859704292E+01  0.45045681975E+02  0.00000000000E+00 0.  1.
         11    1    3    3    0    0  0.62725075557E+01 -0.45630020512E+00  0.18617965246E+01  0.65588754732E+01  0.51100000000E-03 0. -1.
        -11    1    3    3    0    0 -0.76954589982E-01 -0.42264634713E+00  0.43039562391E+00  0.60810574562E+00  0.51100000000E-03 0.  1.
         12    1    3    3    0    0  0.38598800303E+02  0.53582408682E+01 -0.70622171930E+00  0.38975336806E+02  0.00000000000E+00 0. -1.
</event>
<event>
 7    1  0.4119299E-008  0.4614232E+02  0.7816164E-02  0.1320468E+00
        -11   -1    0    0    0    0  0.00000000000E+00  0.00000000000E+00  0.45593999997E+02  0.45594000000E+02  0.51100000000E-03 0.  1.
         11   -1    0    0    0    0 -0.00000000000E+00 -0.00000000000E+00 -0.45593999997E+02  0.45594000000E+02  0.51100000000E-03 0. -1.
    9900012    2    1    2    0    0  0.16179784443E+02 -0.83077415378E+01 -0.41210550400E+02  0.46142318094E+02  0.10000003039E+02 0.  0.
        -12    1    1    2    0    0 -0.16179784443E+02  0.83077415378E+01  0.41210550400E+02  0.45045681906E+02  0.00000000000E+00 0.  1.
         11    1    3    3    0    0  0.47664972263E+01 -0.25790071656E+01 -0.15328276218E+02  0.16258131068E+02  0.51100000000E-03 0. -1.
        -11    1    3    3    0    0 -0.83725656734E+00 -0.66950924112E-01 -0.46544044517E+01  0.47295837076E+01  0.51100000000E-03 0.  1.
         12    1    3    3    0    0  0.12250543784E+02 -0.56617834481E+01 -0.21227869730E+02  0.25154603318E+02  0.00000000000E+00 0. -1.
</event>
<event>
 7    1  0.4119299E-008  0.4614232E+02  0.7816164E-02  0.1320468E+00
        -11   -1    0    0    0    0  0.00000000000E+00  0.00000000000E+00  0.45593999997E+02  0.45594000000E+02  0.51100000000E-03 0.  1.
         11   -1    0    0    0    0 -0.00000000000E+00 -0.00000000000E+00 -0.45593999997E+02  0.45594000000E+02  0.51100000000E-03 0. -1.
    9900012    2    1    2    0    0  0.13714131577E+02  0.77751368428E+00 -0.42900252317E+02  0.46142316730E+02  0.99999905953E+01 0.  0.
        -12    1    1    2    0    0 -0.13714131577E+02 -0.77751368428E+00  0.42900252317E+02  0.45045683270E+02  0.00000000000E+00 0.  1.
         11    1    3    3    0    0  0.14105745141E+01  0.50479616429E+00 -0.13140294670E+00  0.15039303916E+01  0.51100000000E-03 0.  1.
        -11    1    3    3    0    0  0.54291311124E+01  0.18303985446E+01 -0.18547844362E+02  0.19412582368E+02  0.51100000000E-03 0. -1.
        -12    1    3    3    0    0  0.68744259505E+01 -0.15576810247E+01 -0.24221005008E+02  0.25225803970E+02  0.00000000000E+00 0.  1.
</event>
<event>
 7    1  0.4119299E-008  0.4614232E+02  0.7816164E-02  0.1320468E+00
        -11   -1    0    0    0    0  0.00000000000E+00  0.00000000000E+00  0.45593999997E+02  0.45594000000E+02  0.51100000000E-03 0.  1.
         11   -1    0    0    0    0 -0.00000000000E+00 -0.00000000000E+00 -0.45593999997E+02  0.45594000000E+02  0.51100000000E-03 0. -1.
    9900012    2    1    2    0    0  0.12710844158E+02 -0.28846650629E+02 -0.32177919810E+02  0.46142319463E+02  0.10000015519E+02 0.  0.
        -12    1    1    2    0    0 -0.12710844158E+02  0.28846650629E+02  0.32177919810E+02  0.45045680537E+02  0.00000000000E+00 0.  1.
         11    1    3    3    0    0  0.32374113844E+01 -0.10715645514E+02 -0.15144064134E+02  0.18832115389E+02  0.51100000000E-03 0. -1.
        -11    1    3    3    0    0  0.13794959843E+01 -0.57656566265E+01 -0.20722039688E+01  0.62801142550E+01  0.51100000000E-03 0.  1.
        -12    1    3    3    0    0  0.80939367895E+01 -0.12365348489E+02 -0.14961651707E+02  0.21030089819E+02  0.00000000000E+00 0.  1.
</event>
<event>
 7    1  0.4119299E-008  0.4614232E+02  0.7816164E-02  0.1320468E+00
        -11   -1    0    0    0    0  0.00000000000E+00  0.00000000000E+00  0.45593999997E+02  0.45594000000E+02  0.51100000000E-03 0.  1.
         11   -1    0    0    0    0 -0.00000000000E+00 -0.00000000000E+00 -0.45593999997E+02  0.45594000000E+02  0.51100000000E-03 0. -1.
    9900012    2    1    2    0    0  0.17596276116E+02 -0.34069013626E+02 -0.23638673154E+02  0.46142317731E+02  0.99999997227E+01 0.  0.
        -12    1    1    2    0    0 -0.17596276116E+02  0.34069013626E+02  0.23638673154E+02  0.45045682269E+02  0.00000000000E+00 0.  1.
         11    1    3    3    0    0  0.12790557695E+02 -0.21817801809E+02 -0.10914156741E+02  0.27545120431E+02  0.51100000000E-03 0. -1.
        -11    1    3    3    0    0  0.39991488084E+01 -0.58616863032E+01 -0.60905692455E+01  0.93513416954E+01  0.51100000000E-03 0.  1.
        -12    1    3    3    0    0  0.80656961274E+00 -0.63895255146E+01 -0.66339471674E+01  0.92458556046E+01  0.00000000000E+00 0.  1.
</event>
<event>
 7    1  0.4119299E-008  0.4614232E+02  0.7816164E-02  0.1320468E+00
        -11   -1    0    0    0    0  0.00000000000E+00  0.00000000000E+00  0.45593999997E+02  0.45594000000E+02  0.51100000000E-03 0.  1.
         11   -1    0    0    0    0 -0.00000000000E+00 -0.00000000000E+00 -0.45593999997E+02  0.45594000000E+02  0.51100000000E-03 0. -1.
    9900012    2    1    2    0    0 -0.82348681053E+01  0.44152364776E+02  0.34451677586E+01  0.46142317089E+02  0.99999938689E+01 0.  0.
        -12    1    1    2    0    0  0.82348681053E+01 -0.44152364776E+02 -0.34451677586E+01  0.45045682911E+02  0.00000000000E+00 0.  1.
         11    1    3    3    0    0 -0.15115296038E+01  0.12661539490E+01  0.14010869498E+00  0.19767393033E+01  0.51100000000E-03 0.  1.
        -11    1    3    3    0    0 -0.53266476713E+01  0.29125195177E+02  0.56329247330E+01  0.30139343239E+02  0.51100000000E-03 0. -1.
         12    1    3    3    0    0 -0.13966908302E+01  0.13761015650E+02 -0.23278656693E+01  0.14026234547E+02  0.00000000000E+00 0. -1.
</event>
<event>
 7    1  0.4119299E-008  0.4614232E+02  0.7816164E-02  0.1320468E+00
        -11   -1    0    0    0    0  0.00000000000E+00  0.00000000000E+00  0.45593999997E+02  0.45594000000E+02  0.51100000000E-03 0.  1.
         11   -1    0    0    0    0 -0.00000000000E+00 -0.00000000000E+00 -0.45593999997E+02  0.45594000000E+02  0.51100000000E-03 0. -1.
    9900012    2    1    2    0    0  0.19042873470E+02  0.36273629422E+02 -0.18727151604E+02  0.46142318425E+02  0.10000006050E+02 0.  0.
        -12    1    1    2    0    0 -0.19042873470E+02 -0.36273629422E+02  0.18727151604E+02  0.45045681575E+02  0.00000000000E+00 0.  1.
         11    1    3    3    0    0  0.11835350060E+02  0.17825805800E+02 -0.11485320918E+02  0.24284716600E+02  0.51100000000E-03 0. -1.
        -11    1    3    3    0    0  0.79981360568E+01  0.14250517518E+02 -0.54583292883E+01  0.17229068135E+02  0.51100000000E-03 0.  1.
        -12    1    3    3    0    0 -0.79061264772E+00  0.41973061034E+01 -0.17835013983E+01  0.46285336903E+01  0.00000000000E+00 0.  1.
</event>
<event>
 7    1  0.4119299E-008  0.4614232E+02  0.7816164E-02  0.1320468E+00
        -11   -1    0    0    0    0  0.00000000000E+00  0.00000000000E+00  0.45593999997E+02  0.45594000000E+02  0.51100000000E-03 0.  1.
         11   -1    0    0    0    0 -0.00000000000E+00 -0.00000000000E+00 -0.45593999997E+02  0.45594000000E+02  0.51100000000E-03 0. -1.
    9900012    2    1    2    0    0  0.32229145335E+02 -0.26144799613E+01 -0.31361763537E+02  0.46142317337E+02  0.99999961321E+01 0.  0.
        -12    1    1    2    0    0 -0.32229145335E+02  0.26144799613E+01  0.31361763537E+02  0.45045682663E+02  0.00000000000E+00 0.  1.
         11    1    3    3    0    0  0.88955717419E+01 -0.24766844419E+01 -0.12914441295E+02  0.15876018287E+02  0.51100000000E-03 0. -1.
        -11    1    3    3    0    0  0.19434209904E+02 -0.91977375279E+00 -0.17521924195E+02  0.26183054179E+02  0.51100000000E-03 0.  1.
        -12    1    3    3    0    0  0.38993636883E+01  0.78197823340E+00 -0.92539804641E+00  0.40832448708E+01  0.00000000000E+00 0.  1.
</event>
<event>
 7    1  0.4119299E-008  0.4614232E+02  0.7816164E-02  0.1320468E+00
        -11   -1    0    0    0    0  0.00000000000E+00  0.00000000000E+00  0.45593999997E+02  0.45594000000E+02  0.51100000000E-03 0. -1.
         11   -1    0    0    0    0 -0.00000000000E+00 -0.00000000000E+00 -0.45593999997E+02  0.45594000000E+02  0.51100000000E-03 0.  1.
    9900012    2    1    2    0    0 -0.64538158088E+01  0.11544508961E+02  0.43060262122E+02  0.46142316526E+02  0.99999887376E+01 0.  0.
        -12    1    1    2    0    0  0.64538158088E+01 -0.11544508961E+02 -0.43060262122E+02  0.45045683474E+02  0.00000000000E+00 0.  1.
         11    1    3    3    0    0 -0.26090296759E+01  0.99622189755E+01  0.37298240652E+02  0.38693818612E+02  0.51100000000E-03 0. -1.
        -11    1    3    3    0    0  0.10207128295E+00 -0.24158288201E+00  0.45178485540E-01  0.26612439265E+00  0.51100000000E-03 0.  1.
         12    1    3    3    0    0 -0.39468574159E+01  0.18238728678E+01  0.57168429842E+01  0.71823735217E+01  0.00000000000E+00 0. -1.
</event>
<event>
 7    1  0.4119299E-008  0.4614232E+02  0.7816164E-02  0.1320468E+00
        -11   -1    0    0    0    0  0.00000000000E+00  0.00000000000E+00  0.45593999997E+02  0.45594000000E+02  0.51100000000E-03 0.  1.
         11   -1    0    0    0    0 -0.00000000000E+00 -0.00000000000E+00 -0.45593999997E+02  0.45594000000E+02  0.51100000000E-03 0. -1.
    9900012    2    1    2    0    0 -0.29026335013E+02  0.23643997150E+02 -0.25050879311E+02  0.46142320076E+02  0.10000021112E+02 0.  0.
        -12    1    1    2    0    0  0.29026335013E+02 -0.23643997150E+02  0.25050879311E+02  0.45045679924E+02  0.00000000000E+00 0.  1.
         11    1    3    3    0    0 -0.15568005366E+02  0.16717337540E+02 -0.17416673038E+02  0.28725818796E+02  0.51100000000E-03 0. -1.
        -11    1    3    3    0    0 -0.41472950392E+00  0.13504847323E+01 -0.11388957989E+01  0.18146331517E+01  0.51100000000E-03 0.  1.
        -12    1    3    3    0    0 -0.13043600143E+02  0.55761748777E+01 -0.64953104746E+01  0.15601868129E+02  0.00000000000E+00 0.  1.
</event>
<event>
 7    1  0.4119299E-008  0.4614232E+02  0.7816164E-02  0.1320468E+00
        -11   -1    0    0    0    0  0.00000000000E+00  0.00000000000E+00  0.45593999997E+02  0.45594000000E+02  0.51100000000E-03 0.  1.
         11   -1    0    0    0    0 -0.00000000000E+00 -0.00000000000E+00 -0.45593999997E+02  0.45594000000E+02  0.51100000000E-03 0. -1.
    9900012    2    1    2    0    0 -0.29612346562E+02 -0.27190653449E+02 -0.20319713746E+02  0.46142317958E+02  0.10000001796E+02 0.  0.
        -12    1    1    2    0    0  0.29612346562E+02  0.27190653449E+02  0.20319713746E+02  0.45045682042E+02  0.00000000000E+00 0.  1.
         11    1    3    3    0    0 -0.52963525474E+01 -0.34008699032E+01 -0.14073927758E+01  0.64496527885E+01  0.51100000000E-03 0. -1.
        -11    1    3    3    0    0 -0.61008243643E+01 -0.23002569472E+01 -0.19329648092E+01  0.68005582978E+01  0.51100000000E-03 0.  1.
         12    1    3    3    0    0 -0.18215169650E+02 -0.21489526598E+02 -0.16979356161E+02  0.32892106872E+02  0.00000000000E+00 0. -1.
</event>
<event>
 7    1  0.4119299E-008  0.4614232E+02  0.7816164E-02  0.1320468E+00
        -11   -1    0    0    0    0  0.00000000000E+00  0.00000000000E+00  0.45593999997E+02  0.45594000000E+02  0.51100000000E-03 0.  1.
         11   -1    0    0    0    0 -0.00000000000E+00 -0.00000000000E+00 -0.45593999997E+02  0.45594000000E+02  0.51100000000E-03 0. -1.
    9900012    2    1    2    0    0  0.21498906779E+02 -0.14256893417E+02 -0.36927652208E+02  0.46142317630E+02  0.99999988061E+01 0.  0.
        -12    1    1    2    0    0 -0.21498906779E+02  0.14256893417E+02  0.36927652208E+02  0.45045682370E+02  0.00000000000E+00 0.  1.
         11    1    3    3    0    0  0.16993323815E+02 -0.10755170352E+02 -0.23945955132E+02  0.31270681333E+02  0.51100000000E-03 0. -1.
        -11    1    3    3    0    0  0.25128887519E+00  0.23689650732E-01  0.35509147620E+00  0.43565756729E+00  0.51100000000E-03 0.  1.
        -12    1    3    3    0    0  0.42542940883E+01 -0.35254127158E+01 -0.13336788552E+02  0.14435978730E+02  0.00000000000E+00 0.  1.
</event>
<event>
 7    1  0.4119299E-008  0.4614232E+02  0.7816164E-02  0.1320468E+00
        -11   -1    0    0    0    0  0.00000000000E+00  0.00000000000E+00  0.45593999997E+02  0.45594000000E+02  0.51100000000E-03 0. -1.
         11   -1    0    0    0    0 -0.00000000000E+00 -0.00000000000E+00 -0.45593999997E+02  0.45594000000E+02  0.51100000000E-03 0.  1.
    9900012    2    1    2    0    0 -0.11040286004E+02 -0.32646020265E+02  0.29007978705E+02  0.46142318933E+02  0.10000010688E+02 0.  0.
        -12    1    1    2    0    0  0.11040286004E+02  0.32646020265E+02 -0.29007978705E+02  0.45045681067E+02  0.00000000000E+00 0.  1.
         11    1    3    3    0    0 -0.88450211306E+01 -0.21026181181E+02  0.18796967064E+02  0.29557751351E+02  0.51100000000E-03 0. -1.
        -11    1    3    3    0    0 -0.23381542429E+01 -0.12097121923E+02  0.89496552715E+01  0.15228383165E+02  0.51100000000E-03 0.  1.
        -12    1    3    3    0    0  0.14288936971E+00  0.47728283911E+00  0.12613563702E+01  0.13561844171E+01  0.00000000000E+00 0.  1.
</event>
<event>
 7    1  0.4119299E-008  0.4614232E+02  0.7816164E-02  0.1320468E+00
        -11   -1    0    0    0    0  0.00000000000E+00  0.00000000000E+00  0.45593999997E+02  0.45594000000E+02  0.51100000000E-03 0.  1.
         11   -1    0    0    0    0 -0.00000000000E+00 -0.00000000000E+00 -0.45593999997E+02  0.45594000000E+02  0.51100000000E-03 0. -1.
    9900012    2    1    2    0    0  0.13849999005E+02  0.37043981565E+02 -0.21564657666E+02  0.46142317600E+02  0.99999985272E+01 0.  0.
        -12    1    1    2    0    0 -0.13849999005E+02 -0.37043981565E+02  0.21564657666E+02  0.45045682400E+02  0.00000000000E+00 0.  1.
         11    1    3    3    0    0  0.86547979435E+01  0.24194728001E+02 -0.88013470524E+01  0.27161629198E+02  0.51100000000E-03 0. -1.
        -11    1    3    3    0    0  0.45966697571E+01  0.99643564834E+01 -0.89423150055E+01  0.14155662150E+02  0.51100000000E-03 0.  1.
         12    1    3    3    0    0  0.59853130449E+00  0.28848970805E+01 -0.38209956083E+01  0.48250262514E+01  0.00000000000E+00 0. -1.
</event>
<event>
 7    1  0.4119299E-008  0.4614232E+02  0.7816164E-02  0.1320468E+00
        -11   -1    0    0    0    0  0.00000000000E+00  0.00000000000E+00  0.45593999997E+02  0.45594000000E+02  0.51100000000E-03 0.  1.
         11   -1    0    0    0    0 -0.00000000000E+00 -0.00000000000E+00 -0.45593999997E+02  0.45594000000E+02  0.51100000000E-03 0. -1.
    9900012    2    1    2    0    0 -0.66873177979E+01 -0.14993326771E+02 -0.41947508351E+02  0.46142317367E+02  0.99999964069E+01 0.  0.
        -12    1    1    2    0    0  0.66873177979E+01  0.14993326771E+02  0.41947508351E+02  0.45045682633E+02  0.00000000000E+00 0.  1.
         11    1    3    3    0    0 -0.28377879313E+01 -0.91912688235E+01 -0.20252751820E+02  0.22421115483E+02  0.51100000000E-03 0. -1.
        -11    1    3    3    0    0  0.72710869774E+00 -0.48492178228E+01 -0.10438780408E+02  0.11533071456E+02  0.51100000000E-03 0.  1.
        -12    1    3    3    0    0 -0.45766385643E+01 -0.95284012475E+00 -0.11255976123E+02  0.12188130428E+02  0.00000000000E+00 0.  1.
</event>
<event>
 7    1  0.4119299E-008  0.4614232E+02  0.7816164E-02  0.1320468E+00
        -11   -1    0    0    0    0  0.00000000000E+00  0.00000000000E+00  0.45593999997E+02  0.45594000000E+02  0.51100000000E-03 0. -1.
         11   -1    0    0    0    0 -0.00000000000E+00 -0.00000000000E+00 -0.45593999997E+02  0.45594000000E+02  0.51100000000E-03 0.  1.
    9900012    2    1    2    0    0 -0.30240047500E+02 -0.27528167177E+02 -0.18890549754E+02  0.46142319508E+02  0.10000015933E+02 0.  0.
        -12    1    1    2    0    0  0.30240047500E+02  0.27528167177E+02  0.18890549754E+02  0.45045680492E+02  0.00000000000E+00 0.  1.
         11    1    3    3    0    0 -0.15193532085E+02 -0.12238332963E+02 -0.48191099923E+01  0.20095871027E+02  0.51100000000E-03 0. -1.
        -11    1    3    3    0    0 -0.12825398268E+02 -0.12367863970E+02 -0.95253021010E+01  0.20203620475E+02  0.51100000000E-03 0.  1.
        -12    1    3    3    0    0 -0.22211171466E+01 -0.29219702444E+01 -0.45461376610E+01  0.58428280071E+01  0.00000000000E+00 0.  1.
</event>
<event>
 7    1  0.4119299E-008  0.4614232E+02  0.7816164E-02  0.1320468E+00
        -11   -1    0    0    0    0  0.00000000000E+00  0.00000000000E+00  0.45593999997E+02  0.45594000000E+02  0.51100000000E-03 0.  1.
         11   -1    0    0    0    0 -0.00000000000E+00 -0.00000000000E+00 -0.45593999997E+02  0.45594000000E+02  0.51100000000E-03 0. -1.
    9900012    2    1    2    0    0  0.40206523741E+02 -0.15964873557E+02 -0.12556744793E+02  0.46142316757E+02  0.99999908468E+01 0.  0.
        -12    1    1    2    0    0 -0.40206523741E+02  0.15964873557E+02  0.12556744793E+02  0.45045683243E+02  0.00000000000E+00 0.  1.
         11    1    3    3    0    0  0.18159542637E+02 -0.49326278656E+01 -0.49884906198E+01  0.19467533110E+02  0.51100000000E-03 0. -1.
        -11    1    3    3    0    0  0.22198741397E+01  0.93361759384E+00 -0.47364886951E+00  0.24543484921E+01  0.51100000000E-03 0.  1.
         12    1    3    3    0    0  0.19827106964E+02 -0.11965863285E+02 -0.70946053032E+01  0.24220435156E+02  0.00000000000E+00 0. -1.
</event>
<event>
 7    1  0.4119299E-008  0.4614232E+02  0.7816164E-02  0.1320468E+00
        -11   -1    0    0    0    0  0.00000000000E+00  0.00000000000E+00  0.45593999997E+02  0.45594000000E+02  0.51100000000E-03 0.  1.
         11   -1    0    0    0    0 -0.00000000000E+00 -0.00000000000E+00 -0.45593999997E+02  0.45594000000E+02  0.51100000000E-03 0. -1.
    9900012    2    1    2    0    0  0.39338998240E+02 -0.29236664491E+01  0.21748766849E+02  0.46142317993E+02  0.10000002113E+02 0.  0.
        -12    1    1    2    0    0 -0.39338998240E+02  0.29236664491E+01 -0.21748766849E+02  0.45045682007E+02  0.00000000000E+00 0.  1.
         11    1    3    3    0    0  0.14234177256E+02  0.98045255443E+00  0.65905148138E+01  0.15716487366E+02  0.51100000000E-03 0.  1.
        -11    1    3    3    0    0  0.24073998814E+02 -0.30800545534E+01  0.15798269406E+02  0.28959099976E+02  0.51100000000E-03 0. -1.
        -12    1    3    3    0    0  0.10308221703E+01 -0.82406445008E+00 -0.64001737109E+00  0.14667306501E+01  0.00000000000E+00 0.  1.
</event>
<event>
 7    1  0.4119299E-008  0.4614232E+02  0.7816164E-02  0.1320468E+00
        -11   -1    0    0    0    0  0.00000000000E+00  0.00000000000E+00  0.45593999997E+02  0.45594000000E+02  0.51100000000E-03 0.  1.
         11   -1    0    0    0    0 -0.00000000000E+00 -0.00000000000E+00 -0.45593999997E+02  0.45594000000E+02  0.51100000000E-03 0. -1.
    9900012    2    1    2    0    0  0.36657576114E+02 -0.25982187955E+02 -0.32033507051E+01  0.46142318373E+02  0.10000005583E+02 0.  0.
        -12    1    1    2    0    0 -0.36657576114E+02  0.25982187955E+02  0.32033507051E+01  0.45045681627E+02  0.00000000000E+00 0.  1.
         11    1    3    3    0    0  0.79487325925E+01 -0.10194411837E+02 -0.33049436467E+00  0.12931264800E+02  0.51100000000E-03 0. -1.
        -11    1    3    3    0    0  0.12990461170E+01 -0.44094819974E+00  0.79235785801E+00  0.15842308434E+01  0.51100000000E-03 0.  1.
         12    1    3    3    0    0  0.27409797404E+02 -0.15346827918E+02 -0.36652141984E+01  0.31626822730E+02  0.00000000000E+00 0. -1.
</event>
<event>
 7    1  0.4119299E-008  0.4614232E+02  0.7816164E-02  0.1320468E+00
        -11   -1    0    0    0    0  0.00000000000E+00  0.00000000000E+00  0.45593999997E+02  0.45594000000E+02  0.51100000000E-03 0.  1.
         11   -1    0    0    0    0 -0.00000000000E+00 -0.00000000000E+00 -0.45593999997E+02  0.45594000000E+02  0.51100000000E-03 0. -1.
    9900012    2    1    2    0    0  0.99991619385E+01 -0.33208501616E+02 -0.28745875052E+02  0.46142321500E+02  0.10000034093E+02 0.  0.
        -12    1    1    2    0    0 -0.99991619385E+01  0.33208501616E+02  0.28745875052E+02  0.45045678500E+02  0.00000000000E+00 0.  1.
         11    1    3    3    0    0  0.47333188654E+01 -0.11530350810E+02 -0.98145418417E+01  0.15864379253E+02  0.51100000000E-03 0. -1.
        -11    1    3    3    0    0  0.71625414496E+01 -0.14762437715E+02 -0.14066244196E+02  0.21612283390E+02  0.51100000000E-03 0.  1.
         12    1    3    3    0    0 -0.18966983764E+01 -0.69157130918E+01 -0.48650890138E+01  0.86656588562E+01  0.00000000000E+00 0. -1.
</event>
<event>
 7    1  0.4119299E-008  0.4614232E+02  0.7816164E-02  0.1320468E+00
        -11   -1    0    0    0    0  0.00000000000E+00  0.00000000000E+00  0.45593999997E+02  0.45594000000E+02  0.51100000000E-03 0. -1.
         11   -1    0    0    0    0 -0.00000000000E+00 -0.00000000000E+00 -0.45593999997E+02  0.45594000000E+02  0.51100000000E-03 0.  1.
    9900012    2    1    2    0    0  0.58421050652E+01 -0.43573989493E+02  0.98127846230E+01  0.46142317698E+02  0.99999994272E+01 0.  0.
        -12    1    1    2    0    0 -0.58421050652E+01  0.43573989493E+02 -0.98127846230E+01  0.45045682302E+02  0.00000000000E+00 0.  1.
         11    1    3    3    0    0  0.32300381314E+00 -0.22111813918E+02  0.17841729687E+01  0.22186029831E+02  0.51100000000E-03 0. -1.
        -11    1    3    3    0    0  0.50502319351E+00 -0.10351059639E+02  0.41589898128E+01  0.11166766792E+02  0.51100000000E-03 0.  1.
        -12    1    3    3    0    0  0.50140780585E+01 -0.11111115937E+02  0.38696218415E+01  0.12789521075E+02  0.00000000000E+00 0.  1.
</event>
<event>
 7    1  0.4119299E-008  0.4614232E+02  0.7816164E-02  0.1320468E+00
        -11   -1    0    0    0    0  0.00000000000E+00  0.00000000000E+00  0.45593999997E+02  0.45594000000E+02  0.51100000000E-03 0. -1.
         11   -1    0    0    0    0 -0.00000000000E+00 -0.00000000000E+00 -0.45593999997E+02  0.45594000000E+02  0.51100000000E-03 0.  1.
    9900012    2    1    2    0    0 -0.56014096321E+01  0.42796619859E+02 -0.12891353985E+02  0.46142317978E+02  0.10000001981E+02 0.  0.
        -12    1    1    2    0    0  0.56014096321E+01 -0.42796619859E+02  0.12891353985E+02  0.45045682022E+02  0.00000000000E+00 0.  1.
         11    1    3    3    0    0 -0.27544270627E+01  0.24845342270E+02 -0.45443318473E+01  0.25407259852E+02  0.51100000000E-03 0. -1.
        -11    1    3    3    0    0 -0.11665532823E+01  0.50253380577E+01 -0.52018464083E+01  0.73262593096E+01  0.51100000000E-03 0.  1.
        -12    1    3    3    0    0 -0.16804292872E+01  0.12925939531E+02 -0.31451757291E+01  0.13408798817E+02  0.00000000000E+00 0.  1.
</event>
<event>
 7    1  0.4119299E-008  0.4614232E+02  0.7816164E-02  0.1320468E+00
        -11   -1    0    0    0    0  0.00000000000E+00  0.00000000000E+00  0.45593999997E+02  0.45594000000E+02  0.51100000000E-03 0.  1.
         11   -1    0    0    0    0 -0.00000000000E+00 -0.00000000000E+00 -0.45593999997E+02  0.45594000000E+02  0.51100000000E-03 0. -1.
    9900012    2    1    2    0    0 -0.28009934189E+02 -0.34321857233E+02  0.81588658949E+01  0.46142318854E+02  0.10000009965E+02 0.  0.
        -12    1    1    2    0    0  0.28009934189E+02  0.34321857233E+02 -0.81588658949E+01  0.45045681146E+02  0.00000000000E+00 0.  1.
         11    1    3    3    0    0 -0.57213448499E+01 -0.83664315083E+01 -0.51275835358E+00  0.10148590270E+02  0.51100000000E-03 0. -1.
        -11    1    3    3    0    0 -0.10026215354E+02 -0.93150262072E+01  0.29020653670E+00  0.13688642287E+02  0.51100000000E-03 0.  1.
        -12    1    3    3    0    0 -0.12262373986E+02 -0.16640399518E+02  0.83814177118E+01  0.22305086297E+02  0.00000000000E+00 0.  1.
</event>
<event>
 7    1  0.4119299E-008  0.4614232E+02  0.7816164E-02  0.1320468E+00
        -11   -1    0    0    0    0  0.00000000000E+00  0.00000000000E+00  0.45593999997E+02  0.45594000000E+02  0.51100000000E-03 0.  1.
         11   -1    0    0    0    0 -0.00000000000E+00 -0.00000000000E+00 -0.45593999997E+02  0.45594000000E+02  0.51100000000E-03 0. -1.
    9900012    2    1    2    0    0 -0.43132110451E+02  0.12926185244E+02 -0.12838482883E+01  0.46142317817E+02  0.10000000510E+02 0.  0.
        -12    1    1    2    0    0  0.43132110451E+02 -0.12926185244E+02  0.12838482883E+01  0.45045682183E+02  0.00000000000E+00 0.  1.
         11    1    3    3    0    0 -0.14620024842E+02  0.47259276145E+01 -0.11191786728E+01  0.15405585979E+02  0.51100000000E-03 0. -1.
        -11    1    3    3    0    0 -0.17179944851E+02  0.91540527928E+00 -0.10472527107E+01  0.17236159967E+02  0.51100000000E-03 0.  1.
        -12    1    3    3    0    0 -0.11332140758E+02  0.72848523503E+01  0.88258309526E+00  0.13500571871E+02  0.00000000000E+00 0.  1.
</event>
<event>
 7    1  0.4119299E-008  0.4614232E+02  0.7816164E-02  0.1320468E+00
        -11   -1    0    0    0    0  0.00000000000E+00  0.00000000000E+00  0.45593999997E+02  0.45594000000E+02  0.51100000000E-03 0.  1.
         11   -1    0    0    0    0 -0.00000000000E+00 -0.00000000000E+00 -0.45593999997E+02  0.45594000000E+02  0.51100000000E-03 0. -1.
    9900012    2    1    2    0    0  0.11072583125E+02 -0.37910772316E+02 -0.21662981585E+02  0.46142317345E+02  0.99999962096E+01 0.  0.
        -12    1    1    2    0    0 -0.11072583125E+02  0.37910772316E+02  0.21662981585E+02  0.45045682655E+02  0.00000000000E+00 0.  1.
         11    1    3    3    0    0  0.68498506068E+01 -0.16355412493E+02 -0.88910163537E+01  0.19836081852E+02  0.51100000000E-03 0. -1.
        -11    1    3    3    0    0  0.20352343910E+01 -0.13805877841E+02 -0.42641491423E+01  0.14592032421E+02  0.51100000000E-03 0.  1.
         12    1    3    3    0    0  0.21874981269E+01 -0.77494819816E+01 -0.85078160886E+01  0.11714203073E+02  0.00000000000E+00 0. -1.
</event>
<event>
 7    1  0.4119299E-008  0.4614232E+02  0.7816164E-02  0.1320468E+00
        -11   -1    0    0    0    0  0.00000000000E+00  0.00000000000E+00  0.45593999997E+02  0.45594000000E+02  0.51100000000E-03 0.  1.
         11   -1    0    0    0    0 -0.00000000000E+00 -0.00000000000E+00 -0.45593999997E+02  0.45594000000E+02  0.51100000000E-03 0. -1.
    9900012    2    1    2    0    0 -0.12713852451E+02  0.28033640870E+02 -0.32887481566E+02  0.46142317539E+02  0.99999979765E+01 0.  0.
        -12    1    1    2    0    0  0.12713852451E+02 -0.28033640870E+02  0.32887481566E+02  0.45045682461E+02  0.00000000000E+00 0.  1.
         11    1    3    3    0    0 -0.72359550393E+01  0.95029346667E+01 -0.10417109582E+02  0.15848690322E+02  0.51100000000E-03 0. -1.
        -11    1    3    3    0    0 -0.21806650104E+01  0.26919685920E+01 -0.74567746552E+01  0.82222553662E+01  0.51100000000E-03 0.  1.
        -12    1    3    3    0    0 -0.32972324012E+01  0.15838737612E+02 -0.15013597329E+02  0.22071371851E+02  0.00000000000E+00 0.  1.
</event>
<event>
 7    1  0.4845276E-008  0.4614232E+02  0.7816164E-02  0.1320468E+00
        -11   -1    0    0    0    0  0.00000000000E+00  0.00000000000E+00  0.45593999997E+02  0.45594000000E+02  0.51100000000E-03 0. -1.
         11   -1    0    0    0    0 -0.00000000000E+00 -0.00000000000E+00 -0.45593999997E+02  0.45594000000E+02  0.51100000000E-03 0.  1.
    9900012    2    1    2    0    0  0.33376666328E+02  0.11750316967E+02  0.27875469008E+02  0.46142316784E+02  0.99999910860E+01 0.  0.
        -12    1    1    2    0    0 -0.33376666328E+02 -0.11750316967E+02 -0.27875469008E+02  0.45045683216E+02  0.00000000000E+00 0.  1.
         11    1    3    3    0    0  0.55886962632E+01  0.43101603593E+01  0.39679857310E+01  0.80966609950E+01  0.51100000000E-03 0. -1.
        -11    1    3    3    0    0  0.16559086075E+01 -0.67136805259E+00  0.12270494748E+00  0.17910402407E+01  0.51100000000E-03 0.  1.
         12    1    3    3    0    0  0.26132061457E+02  0.81115246604E+01  0.23784778330E+02  0.36254615548E+02  0.00000000000E+00 0. -1.
</event>
<event>
 7    1  0.4119299E-008  0.4614232E+02  0.7816164E-02  0.1320468E+00
        -11   -1    0    0    0    0  0.00000000000E+00  0.00000000000E+00  0.45593999997E+02  0.45594000000E+02  0.51100000000E-03 0. -1.
         11   -1    0    0    0    0 -0.00000000000E+00 -0.00000000000E+00 -0.45593999997E+02  0.45594000000E+02  0.51100000000E-03 0.  1.
    9900012    2    1    2    0    0  0.32283064694E+02  0.29178016850E+02 -0.11643048459E+02  0.46142317513E+02  0.99999977343E+01 0.  0.
        -12    1    1    2    0    0 -0.32283064694E+02 -0.29178016850E+02  0.11643048459E+02  0.45045682487E+02  0.00000000000E+00 0.  1.
         11    1    3    3    0    0  0.46129064953E+01  0.11904074134E+01 -0.27615501265E+01  0.55065538685E+01  0.51100000000E-03 0. -1.
        -11    1    3    3    0    0  0.95606876143E+01  0.11475027314E+02 -0.54001803071E+01  0.15882221102E+02  0.51100000000E-03 0.  1.
         12    1    3    3    0    0  0.18109470585E+02  0.16512582123E+02 -0.34813180249E+01  0.24753542543E+02  0.00000000000E+00 0. -1.
</event>
<event>
 7    1  0.4119299E-008  0.4614232E+02  0.7816164E-02  0.1320468E+00
        -11   -1    0    0    0    0  0.00000000000E+00  0.00000000000E+00  0.45593999997E+02  0.45594000000E+02  0.51100000000E-03 0.  1.
         11   -1    0    0    0    0 -0.00000000000E+00 -0.00000000000E+00 -0.45593999997E+02  0.45594000000E+02  0.51100000000E-03 0. -1.
    9900012    2    1    2    0    0 -0.21408396725E+02 -0.38766835688E+02 -0.82417521269E+01  0.46142317879E+02  0.10000001079E+02 0.  0.
        -12    1    1    2    0    0  0.21408396725E+02  0.38766835688E+02  0.82417521269E+01  0.45045682121E+02  0.00000000000E+00 0.  1.
         11    1    3    3    0    0 -0.23504933634E+01 -0.47495862189E+00 -0.73396454921E+00  0.25078095950E+01  0.51100000000E-03 0. -1.
        -11    1    3    3    0    0 -0.11631467211E+01 -0.86151188675E+00  0.11507140899E+00  0.14520174641E+01  0.51100000000E-03 0.  1.
         12    1    3    3    0    0 -0.17894756640E+02 -0.37430365179E+02 -0.76228589867E+01  0.42182490820E+02  0.00000000000E+00 0. -1.
</event>
<event>
 7    1  0.4119299E-008  0.4614232E+02  0.7816164E-02  0.1320468E+00
        -11   -1    0    0    0    0  0.00000000000E+00  0.00000000000E+00  0.45593999997E+02  0.45594000000E+02  0.51100000000E-03 0. -1.
         11   -1    0    0    0    0 -0.00000000000E+00 -0.00000000000E+00 -0.45593999997E+02  0.45594000000E+02  0.51100000000E-03 0.  1.
    9900012    2    1    2    0    0 -0.35923177580E+02 -0.24088865663E+02  0.12584335306E+02  0.46142316173E+02  0.99999855180E+01 0.  0.
        -12    1    1    2    0    0  0.35923177580E+02  0.24088865663E+02 -0.12584335306E+02  0.45045683827E+02  0.00000000000E+00 0.  1.
         11    1    3    3    0    0 -0.54300072527E+01 -0.58214854426E+01  0.12721907982E+00  0.79618375064E+01  0.51100000000E-03 0. -1.
        -11    1    3    3    0    0 -0.57692440543E+00 -0.16946723595E+01  0.12789166240E+01  0.22000873092E+01  0.51100000000E-03 0.  1.
        -12    1    3    3    0    0 -0.29916245922E+02 -0.16572707860E+02  0.11178199602E+02  0.35980391357E+02  0.00000000000E+00 0.  1.
</event>
<event>
 7    1  0.4119299E-008  0.4614232E+02  0.7816164E-02  0.1320468E+00
        -11   -1    0    0    0    0  0.00000000000E+00  0.00000000000E+00  0.45593999997E+02  0.45594000000E+02  0.51100000000E-03 0.  1.
         11   -1    0    0    0    0 -0.00000000000E+00 -0.00000000000E+00 -0.45593999997E+02  0.45594000000E+02  0.51100000000E-03 0. -1.
    9900012    2    1    2    0    0  0.30443952253E+02 -0.36977790050E+01 -0.32994025133E+02  0.46142317711E+02  0.99999995468E+01 0.  0.
        -12    1    1    2    0    0 -0.30443952253E+02  0.36977790050E+01  0.32994025133E+02  0.45045682289E+02  0.00000000000E+00 0.  1.
         11    1    3    3    0    0  0.10737991121E+02  0.22017109409E+01 -0.12897319087E+02  0.16926098909E+02  0.51100000000E-03 0. -1.
        -11    1    3    3    0    0  0.22212281890E+01  0.91808144710E+00 -0.28492743692E+01  0.37276122254E+01  0.51100000000E-03 0.  1.
         12    1    3    3    0    0  0.17484732943E+02 -0.68175713930E+01 -0.17247431677E+02  0.25488606577E+02  0.00000000000E+00 0. -1.
</event>
<event>
 7    1  0.4119299E-008  0.4614232E+02  0.7816164E-02  0.1320468E+00
        -11   -1    0    0    0    0  0.00000000000E+00  0.00000000000E+00  0.45593999997E+02  0.45594000000E+02  0.51100000000E-03 0.  1.
         11   -1    0    0    0    0 -0.00000000000E+00 -0.00000000000E+00 -0.45593999997E+02  0.45594000000E+02  0.51100000000E-03 0. -1.
    9900012    2    1    2    0    0 -0.48992114010E+01 -0.10887321422E+02 -0.43434748286E+02  0.46142318756E+02  0.10000009069E+02 0.  0.
        -12    1    1    2    0    0  0.48992114010E+01  0.10887321422E+02  0.43434748286E+02  0.45045681244E+02  0.00000000000E+00 0.  1.
         11    1    3    3    0    0  0.73044893208E+00  0.66587660698E+00 -0.34701160083E+01  0.36081370082E+01  0.51100000000E-03 0. -1.
        -11    1    3    3    0    0 -0.13267765443E+01 -0.95278978600E+01 -0.29751788447E+02  0.31268356044E+02  0.51100000000E-03 0.  1.
        -12    1    3    3    0    0 -0.43028837888E+01 -0.20253001687E+01 -0.10212843831E+02  0.11265825704E+02  0.00000000000E+00 0.  1.
</event>
<event>
 7    1  0.4119299E-008  0.4614232E+02  0.7816164E-02  0.1320468E+00
        -11   -1    0    0    0    0  0.00000000000E+00  0.00000000000E+00  0.45593999997E+02  0.45594000000E+02  0.51100000000E-03 0.  1.
         11   -1    0    0    0    0 -0.00000000000E+00 -0.00000000000E+00 -0.45593999997E+02  0.45594000000E+02  0.51100000000E-03 0. -1.
    9900012    2    1    2    0    0 -0.32036819693E+02 -0.29854595602E+02 -0.10557407195E+02  0.46142317174E+02  0.99999946481E+01 0.  0.
        -12    1    1    2    0    0  0.32036819693E+02  0.29854595602E+02  0.10557407195E+02  0.45045682826E+02  0.00000000000E+00 0.  1.
         11    1    3    3    0    0 -0.19499714789E+02 -0.18406227914E+02 -0.71107487486E+01  0.27741500517E+02  0.51100000000E-03 0. -1.
        -11    1    3    3    0    0 -0.69980433038E+01 -0.23528341799E+01 -0.79068724177E+00  0.74252020400E+01  0.51100000000E-03 0.  1.
        -12    1    3    3    0    0 -0.55390615998E+01 -0.90955335076E+01 -0.26559712043E+01  0.10975614618E+02  0.00000000000E+00 0.  1.
</event>
<event>
 7    1  0.4119299E-008  0.4614232E+02  0.7816164E-02  0.1320468E+00
        -11   -1    0    0    0    0  0.00000000000E+00  0.00000000000E+00  0.45593999997E+02  0.45594000000E+02  0.51100000000E-03 0.  1.
         11   -1    0    0    0    0 -0.00000000000E+00 -0.00000000000E+00 -0.45593999997E+02  0.45594000000E+02  0.51100000000E-03 0. -1.
    9900012    2    1    2    0    0  0.36724840119E+02  0.21201337371E+02  0.15195491895E+02  0.46142316943E+02  0.99999925434E+01 0.  0.
        -12    1    1    2    0    0 -0.36724840119E+02 -0.21201337371E+02 -0.15195491895E+02  0.45045683057E+02  0.00000000000E+00 0.  1.
         11    1    3    3    0    0  0.11678364600E+02  0.29694185849E+01  0.18421838191E+01  0.12189966692E+02  0.51100000000E-03 0. -1.
        -11    1    3    3    0    0  0.10918439568E+01  0.17974364799E+01  0.38100694815E+00  0.21373038345E+01  0.51100000000E-03 0.  1.
         12    1    3    3    0    0  0.23954631562E+02  0.16434482306E+02  0.12972301128E+02  0.31815046417E+02  0.00000000000E+00 0. -1.
</event>
<event>
 7    1  0.4119299E-008  0.4614232E+02  0.7816164E-02  0.1320468E+00
        -11   -1    0    0    0    0  0.00000000000E+00  0.00000000000E+00  0.45593999997E+02  0.45594000000E+02  0.51100000000E-03 0.  1.
         11   -1    0    0    0    0 -0.00000000000E+00 -0.00000000000E+00 -0.45593999997E+02  0.45594000000E+02  0.51100000000E-03 0. -1.
    9900012    2    1    2    0    0 -0.17492243736E+02 -0.27436733414E+01 -0.41419886808E+02  0.46142319214E+02  0.10000013247E+02 0.  0.
        -12    1    1    2    0    0  0.17492243736E+02  0.27436733414E+01  0.41419886808E+02  0.45045680786E+02  0.00000000000E+00 0.  1.
         11    1    3    3    0    0 -0.10072901392E+02 -0.85633255188E+00 -0.15136295104E+02  0.18201760290E+02  0.51100000000E-03 0. -1.
        -11    1    3    3    0    0 -0.24248626477E+01  0.19087729150E+01 -0.66964612464E+01  0.73733280401E+01  0.51100000000E-03 0.  1.
         12    1    3    3    0    0 -0.49944796958E+01 -0.37961137045E+01 -0.19587130457E+02  0.20567230884E+02  0.00000000000E+00 0. -1.
</event>
<event>
 7    1  0.4119299E-008  0.4614232E+02  0.7816164E-02  0.1320468E+00
        -11   -1    0    0    0    0  0.00000000000E+00  0.00000000000E+00  0.45593999997E+02  0.45594000000E+02  0.51100000000E-03 0.  1.
         11   -1    0    0    0    0 -0.00000000000E+00 -0.00000000000E+00 -0.45593999997E+02  0.45594000000E+02  0.51100000000E-03 0. -1.
    9900012    2    1    2    0    0 -0.39496284071E+02 -0.27920684021E+01 -0.21479325105E+02  0.46142317539E+02  0.99999979774E+01 0.  0.
        -12    1    1    2    0    0  0.39496284071E+02  0.27920684021E+01  0.21479325105E+02  0.45045682461E+02  0.00000000000E+00 0.  1.
         11    1    3    3    0    0 -0.14398978944E+02 -0.12255221641E+00 -0.88232999780E+01  0.16887754038E+02  0.51100000000E-03 0. -1.
        -11    1    3    3    0    0 -0.88006005656E+01  0.61890823211E+00 -0.81950817174E+01  0.12041303182E+02  0.51100000000E-03 0.  1.
        -12    1    3    3    0    0 -0.16296704561E+02 -0.32884244178E+01 -0.44609434098E+01  0.17213260319E+02  0.00000000000E+00 0.  1.
</event>
<event>
 7    1  0.4119299E-008  0.4614232E+02  0.7816164E-02  0.1320468E+00
        -11   -1    0    0    0    0  0.00000000000E+00  0.00000000000E+00  0.45593999997E+02  0.45594000000E+02  0.51100000000E-03 0.  1.
         11   -1    0    0    0    0 -0.00000000000E+00 -0.00000000000E+00 -0.45593999997E+02  0.45594000000E+02  0.51100000000E-03 0. -1.
    9900012    2    1    2    0    0 -0.23270445636E+02  0.25518624625E+02 -0.28920574870E+02  0.46142317702E+02  0.99999994648E+01 0.  0.
        -12    1    1    2    0    0  0.23270445636E+02 -0.25518624625E+02  0.28920574870E+02  0.45045682298E+02  0.00000000000E+00 0.  1.
         11    1    3    3    0    0 -0.21485166815E+01 -0.44856100659E-01 -0.31934245279E+01  0.38491682838E+01  0.51100000000E-03 0. -1.
        -11    1    3    3    0    0 -0.17493028159E+01  0.45918887995E+01 -0.26512136334E+01  0.55834073001E+01  0.51100000000E-03 0.  1.
         12    1    3    3    0    0 -0.19372626139E+02  0.20971591927E+02 -0.23075936708E+02  0.36709742118E+02  0.00000000000E+00 0. -1.
</event>
<event>
 7    1  0.4119299E-008  0.4614232E+02  0.7816164E-02  0.1320468E+00
        -11   -1    0    0    0    0  0.00000000000E+00  0.00000000000E+00  0.45593999997E+02  0.45594000000E+02  0.51100000000E-03 0. -1.
         11   -1    0    0    0    0 -0.00000000000E+00 -0.00000000000E+00 -0.45593999997E+02  0.45594000000E+02  0.51100000000E-03 0.  1.
    9900012    2    1    2    0    0  0.32150117654E+02  0.31157235857E+02  0.49709282844E+01  0.46142317195E+02  0.99999948332E+01 0.  0.
        -12    1    1    2    0    0 -0.32150117654E+02 -0.31157235857E+02 -0.49709282844E+01  0.45045682805E+02  0.00000000000E+00 0.  1.
         11    1    3    3    0    0  0.23802082747E+01  0.15089092385E+01  0.10698771203E+01  0.30144378969E+01  0.51100000000E-03 0. -1.
        -11    1    3    3    0    0  0.27205359570E+02  0.29812836228E+02  0.33440604727E+01  0.40498389277E+02  0.51100000000E-03 0.  1.
        -12    1    3    3    0    0  0.25645498100E+01 -0.16450961036E+00  0.55699069144E+00  0.26294900210E+01  0.00000000000E+00 0.  1.
</event>
