<event>
 7    1  0.9175399E-010  0.4778727E+02  0.7816164E-02  0.1312668E+00
        -11   -1    0    0    0    0  0.00000000000E+00  0.00000000000E+00  0.45593999997E+02  0.45594000000E+02  0.51100000000E-03 0. -1.
         11   -1    0    0    0    0 -0.00000000000E+00 -0.00000000000E+00 -0.45593999997E+02  0.45594000000E+02  0.51100000000E-03 0.  1.
    9900012    2    1    2    0    0  0.12925502674E+02 -0.19458913804E+02  0.36577384792E+02  0.47787273923E+02  0.20000013123E+02 0.  0.
        -12    1    1    2    0    0 -0.12925502674E+02  0.19458913804E+02 -0.36577384792E+02  0.43400726077E+02  0.00000000000E+00 0.  1.
         11    1    3    3    0    0  0.13095295807E+02 -0.64174088698E+01  0.20581493732E+02  0.25224349216E+02  0.51100000000E-03 0. -1.
        -11    1    3    3    0    0 -0.19588442120E+01 -0.13551271211E+02  0.12213599286E+02  0.18347916226E+02  0.51100000000E-03 0.  1.
        -12    1    3    3    0    0  0.17890510800E+01  0.50976627694E+00  0.37822917743E+01  0.42150084804E+01  0.00000000000E+00 0.  1.
</event>
<event>
 7    1  0.9175399E-010  0.4778727E+02  0.7816164E-02  0.1312668E+00
        -11   -1    0    0    0    0  0.00000000000E+00  0.00000000000E+00  0.45593999997E+02  0.45594000000E+02  0.51100000000E-03 0. -1.
         11   -1    0    0    0    0 -0.00000000000E+00 -0.00000000000E+00 -0.45593999997E+02  0.45594000000E+02  0.51100000000E-03 0.  1.
    9900012    2    1    2    0    0 -0.34647321252E+02 -0.55639955844E+01 -0.25538763517E+02  0.47787270066E+02  0.19999995540E+02 0.  0.
         12    1    1    2    0    0  0.34647321252E+02  0.55639955844E+01  0.25538763517E+02  0.43400729934E+02  0.00000000000E+00 0. -1.
         11    1    3    3    0    0 -0.32043103799E+01 -0.70809708787E+01 -0.56290155753E+01  0.95965394911E+01  0.51100000000E-03 0. -1.
        -11    1    3    3    0    0 -0.17862086463E+02  0.49922091846E+01 -0.12081637699E+02  0.22134639259E+02  0.51100000000E-03 0.  1.
        -12    1    3    3    0    0 -0.13580924409E+02 -0.34752338902E+01 -0.78281102431E+01  0.16056091317E+02  0.00000000000E+00 0.  1.
</event>
<event>
 7    1  0.9175399E-010  0.4778726E+02  0.7816164E-02  0.1312668E+00
        -11   -1    0    0    0    0  0.00000000000E+00  0.00000000000E+00  0.45593999997E+02  0.45594000000E+02  0.51100000000E-03 0. -1.
         11   -1    0    0    0    0 -0.00000000000E+00 -0.00000000000E+00 -0.45593999997E+02  0.45594000000E+02  0.51100000000E-03 0.  1.
    9900012    2    1    2    0    0 -0.11843256956E+02  0.39224671284E+02  0.14310361260E+02  0.47787262541E+02  0.19999961227E+02 0.  0.
        -12    1    1    2    0    0  0.11843256956E+02 -0.39224671284E+02 -0.14310361260E+02  0.43400737459E+02  0.00000000000E+00 0.  1.
         11    1    3    3    0    0 -0.61611931346E+00  0.45500841873E+01  0.77611391296E+01  0.90176576765E+01  0.51100000000E-03 0. -1.
        -11    1    3    3    0    0 -0.60670022549E+01  0.27033630421E+02  0.44076260072E+00  0.27709564450E+02  0.51100000000E-03 0.  1.
        -12    1    3    3    0    0 -0.51601353875E+01  0.76409566759E+01  0.61084595292E+01  0.11060040414E+02  0.00000000000E+00 0.  1.
</event>
<event>
 7    1  0.9175399E-010  0.4778727E+02  0.7816164E-02  0.1312668E+00
        -11   -1    0    0    0    0  0.00000000000E+00  0.00000000000E+00  0.45593999997E+02  0.45594000000E+02  0.51100000000E-03 0. -1.
         11   -1    0    0    0    0 -0.00000000000E+00 -0.00000000000E+00 -0.45593999997E+02  0.45594000000E+02  0.51100000000E-03 0.  1.
    9900012    2    1    2    0    0  0.65452163820E+01 -0.17881450739E+01 -0.42867074614E+02  0.47787269519E+02  0.19999993044E+02 0.  0.
         12    1    1    2    0    0 -0.65452163820E+01  0.17881450739E+01  0.42867074614E+02  0.43400730481E+02  0.00000000000E+00 0. -1.
         11    1    3    3    0    0  0.25726083109E+01 -0.91099132831E+00  0.10314105165E+01  0.29175377694E+01  0.51100000000E-03 0. -1.
        -11    1    3    3    0    0  0.37921421448E+01  0.15128297482E+01 -0.40532511581E+02  0.40737617642E+02  0.51100000000E-03 0.  1.
         12    1    3    3    0    0  0.18046592640E+00 -0.23899834938E+01 -0.33659735504E+01  0.41321141070E+01  0.00000000000E+00 0. -1.
</event>
<event>
 7    1  0.9175399E-010  0.4778727E+02  0.7816164E-02  0.1312668E+00
        -11   -1    0    0    0    0  0.00000000000E+00  0.00000000000E+00  0.45593999997E+02  0.45594000000E+02  0.51100000000E-03 0. -1.
         11   -1    0    0    0    0 -0.00000000000E+00 -0.00000000000E+00 -0.45593999997E+02  0.45594000000E+02  0.51100000000E-03 0.  1.
    9900012    2    1    2    0    0  0.17136904430E+00 -0.26893938490E+02  0.34063321882E+02  0.47787271982E+02  0.20000004273E+02 0.  0.
        -12    1    1    2    0    0 -0.17136904430E+00  0.26893938490E+02 -0.34063321882E+02  0.43400728018E+02  0.00000000000E+00 0.  1.
         11    1    3    3    0    0 -0.40100766389E+01 -0.27775954560E+01  0.13150489744E+02  0.14026087549E+02  0.51100000000E-03 0. -1.
        -11    1    3    3    0    0  0.30802244185E+01 -0.18493123387E+02  0.95608660042E+01  0.21045036329E+02  0.51100000000E-03 0.  1.
        -12    1    3    3    0    0  0.11012212647E+01 -0.56232196467E+01  0.11351966134E+02  0.12716148103E+02  0.00000000000E+00 0.  1.
</event>
<event>
 7    1  0.9175399E-010  0.4778727E+02  0.7816164E-02  0.1312668E+00
        -11   -1    0    0    0    0  0.00000000000E+00  0.00000000000E+00  0.45593999997E+02  0.45594000000E+02  0.51100000000E-03 0. -1.
         11   -1    0    0    0    0 -0.00000000000E+00 -0.00000000000E+00 -0.45593999997E+02  0.45594000000E+02  0.51100000000E-03 0.  1.
    9900012    2    1    2    0    0  0.23865148412E+01 -0.95204580708E+01 -0.42276336953E+02  0.47787271421E+02  0.20000001719E+02 0.  0.
         12    1    1    2    0    0 -0.23865148412E+01  0.95204580708E+01  0.42276336953E+02  0.43400728579E+02  0.00000000000E+00 0. -1.
         11    1    3    3    0    0 -0.70570830095E+01 -0.98913892512E+01 -0.28572725609E+02  0.31049036232E+02  0.51100000000E-03 0. -1.
        -11    1    3    3    0    0  0.59416287395E+01 -0.23844601741E+00 -0.73121175224E+01  0.94248008734E+01  0.51100000000E-03 0.  1.
         12    1    3    3    0    0  0.35019691112E+01  0.60937719782E+00 -0.63914938220E+01  0.73134343165E+01  0.00000000000E+00 0. -1.
</event>
<event>
 7    1  0.9175399E-010  0.4778728E+02  0.7816164E-02  0.1312668E+00
        -11   -1    0    0    0    0  0.00000000000E+00  0.00000000000E+00  0.45593999997E+02  0.45594000000E+02  0.51100000000E-03 0. -1.
         11   -1    0    0    0    0 -0.00000000000E+00 -0.00000000000E+00 -0.45593999997E+02  0.45594000000E+02  0.51100000000E-03 0.  1.
    9900012    2    1    2    0    0 -0.32313673866E+02  0.17616883140E+02  0.23002057279E+02  0.47787277317E+02  0.20000028601E+02 0.  0.
        -12    1    1    2    0    0  0.32313673866E+02 -0.17616883140E+02 -0.23002057279E+02  0.43400722683E+02  0.00000000000E+00 0.  1.
         11    1    3    3    0    0 -0.29554726029E+02  0.13923066112E+02  0.12825425425E+02  0.35097366543E+02  0.51100000000E-03 0. -1.
        -11    1    3    3    0    0 -0.38445397335E+01  0.35682604962E+01  0.10330927813E+02  0.11586243501E+02  0.51100000000E-03 0.  1.
         12    1    3    3    0    0  0.10855918967E+01  0.12555653196E+00 -0.15429595831E+00  0.11036672740E+01  0.00000000000E+00 0. -1.
</event>
<event>
 7    1  0.9175399E-010  0.4778727E+02  0.7816164E-02  0.1312668E+00
        -11   -1    0    0    0    0  0.00000000000E+00  0.00000000000E+00  0.45593999997E+02  0.45594000000E+02  0.51100000000E-03 0. -1.
         11   -1    0    0    0    0 -0.00000000000E+00 -0.00000000000E+00 -0.45593999997E+02  0.45594000000E+02  0.51100000000E-03 0.  1.
    9900012    2    1    2    0    0 -0.79366846428E+01 -0.77551843327E+01 -0.41958183041E+02  0.47787274531E+02  0.20000015897E+02 0.  0.
         12    1    1    2    0    0  0.79366846428E+01  0.77551843327E+01  0.41958183041E+02  0.43400725469E+02  0.00000000000E+00 0. -1.
         11    1    3    3    0    0  0.14101833497E+01 -0.17018018961E+01 -0.24170663805E-01  0.22102785470E+01  0.51100000000E-03 0. -1.
        -11    1    3    3    0    0 -0.11992686968E+02 -0.87152964947E+00 -0.27451936699E+02  0.29969867090E+02  0.51100000000E-03 0.  1.
        -12    1    3    3    0    0  0.26458189754E+01 -0.51818527871E+01 -0.14482075678E+02  0.15607128894E+02  0.00000000000E+00 0.  1.
</event>
<event>
 7    1  0.9175399E-010  0.4778727E+02  0.7816164E-02  0.1312668E+00
        -11   -1    0    0    0    0  0.00000000000E+00  0.00000000000E+00  0.45593999997E+02  0.45594000000E+02  0.51100000000E-03 0. -1.
         11   -1    0    0    0    0 -0.00000000000E+00 -0.00000000000E+00 -0.45593999997E+02  0.45594000000E+02  0.51100000000E-03 0.  1.
    9900012    2    1    2    0    0 -0.41202913293E+02 -0.72763236222E+00  0.13616671127E+02  0.47787271374E+02  0.20000001503E+02 0.  0.
         12    1    1    2    0    0  0.41202913293E+02  0.72763236222E+00 -0.13616671127E+02  0.43400728626E+02  0.00000000000E+00 0. -1.
         11    1    3    3    0    0  0.51361182941E+00  0.22539822747E+01  0.30104465115E+01  0.37956582651E+01  0.51100000000E-03 0. -1.
        -11    1    3    3    0    0 -0.97606462413E+01 -0.25032725899E+01 -0.67603664115E+00  0.10099188804E+02  0.51100000000E-03 0.  1.
         12    1    3    3    0    0 -0.31955878881E+02 -0.47834204701E+00  0.11282261257E+02  0.33892424305E+02  0.00000000000E+00 0. -1.
</event>
<event>
 7    1  0.9175399E-010  0.4778727E+02  0.7816164E-02  0.1312668E+00
        -11   -1    0    0    0    0  0.00000000000E+00  0.00000000000E+00  0.45593999997E+02  0.45594000000E+02  0.51100000000E-03 0. -1.
         11   -1    0    0    0    0 -0.00000000000E+00 -0.00000000000E+00 -0.45593999997E+02  0.45594000000E+02  0.51100000000E-03 0.  1.
    9900012    2    1    2    0    0  0.27819319309E+02 -0.21137865221E+02 -0.25746827326E+02  0.47787274312E+02  0.20000014896E+02 0.  0.
         12    1    1    2    0    0 -0.27819319309E+02  0.21137865221E+02  0.25746827326E+02  0.43400725688E+02  0.00000000000E+00 0. -1.
         11    1    3    3    0    0  0.57127753831E+01 -0.42114570584E+01  0.12270526876E+01  0.72026267217E+01  0.51100000000E-03 0. -1.
        -11    1    3    3    0    0  0.21159532158E+02 -0.10952658905E+02 -0.24095661130E+02  0.33886389949E+02  0.51100000000E-03 0.  1.
        -12    1    3    3    0    0  0.94701176754E+00 -0.59737492571E+01 -0.28782188843E+01  0.66982576407E+01  0.00000000000E+00 0.  1.
</event>
<event>
 7    1  0.9175399E-010  0.4778727E+02  0.7816164E-02  0.1312668E+00
        -11   -1    0    0    0    0  0.00000000000E+00  0.00000000000E+00  0.45593999997E+02  0.45594000000E+02  0.51100000000E-03 0. -1.
         11   -1    0    0    0    0 -0.00000000000E+00 -0.00000000000E+00 -0.45593999997E+02  0.45594000000E+02  0.51100000000E-03 0.  1.
    9900012    2    1    2    0    0 -0.10783269888E+02  0.69196496608E+01 -0.41466404705E+02  0.47787272125E+02  0.20000004928E+02 0.  0.
         12    1    1    2    0    0  0.10783269888E+02 -0.69196496608E+01  0.41466404705E+02  0.43400727875E+02  0.00000000000E+00 0. -1.
         11    1    3    3    0    0  0.29872452190E+01  0.38320582403E+01 -0.19169036910E+02  0.19775244137E+02  0.51100000000E-03 0. -1.
        -11    1    3    3    0    0 -0.83097947977E+01 -0.21012745550E+01 -0.74223619393E+01  0.11338408237E+02  0.51100000000E-03 0.  1.
         12    1    3    3    0    0 -0.54607203093E+01  0.51888659755E+01 -0.14875005856E+02  0.16673619751E+02  0.00000000000E+00 0. -1.
</event>
<event>
 7    1  0.9175399E-010  0.4778727E+02  0.7816164E-02  0.1312668E+00
        -11   -1    0    0    0    0  0.00000000000E+00  0.00000000000E+00  0.45593999997E+02  0.45594000000E+02  0.51100000000E-03 0. -1.
         11   -1    0    0    0    0 -0.00000000000E+00 -0.00000000000E+00 -0.45593999997E+02  0.45594000000E+02  0.51100000000E-03 0.  1.
    9900012    2    1    2    0    0  0.10081974718E+02  0.54950618383E+01 -0.41854286159E+02  0.47787272025E+02  0.20000004472E+02 0.  0.
         12    1    1    2    0    0 -0.10081974718E+02 -0.54950618383E+01  0.41854286159E+02  0.43400727975E+02  0.00000000000E+00 0. -1.
         11    1    3    3    0    0 -0.17974973587E+00 -0.62204502265E+01 -0.92473619713E+01  0.11146300493E+02  0.51100000000E-03 0. -1.
        -11    1    3    3    0    0  0.77577186971E+01  0.10909794168E+02 -0.30364364223E+02  0.33184340028E+02  0.51100000000E-03 0.  1.
        -12    1    3    3    0    0  0.25040057570E+01  0.80571789700E+00 -0.22425599654E+01  0.34566315047E+01  0.00000000000E+00 0.  1.
</event>
<event>
 7    1  0.9175399E-010  0.4778727E+02  0.7816164E-02  0.1312668E+00
        -11   -1    0    0    0    0  0.00000000000E+00  0.00000000000E+00  0.45593999997E+02  0.45594000000E+02  0.51100000000E-03 0.  1.
         11   -1    0    0    0    0 -0.00000000000E+00 -0.00000000000E+00 -0.45593999997E+02  0.45594000000E+02  0.51100000000E-03 0. -1.
    9900012    2    1    2    0    0 -0.42985401956E+02  0.59633014957E+01 -0.56384045342E+00  0.47787266572E+02  0.19999979606E+02 0.  0.
         12    1    1    2    0    0  0.42985401956E+02 -0.59633014957E+01  0.56384045342E+00  0.43400733428E+02  0.00000000000E+00 0. -1.
         11    1    3    3    0    0 -0.78295580588E+01 -0.44212142502E+01  0.37120645974E+01  0.97277201172E+01  0.51100000000E-03 0. -1.
        -11    1    3    3    0    0 -0.21351194449E+02  0.48219432389E+01 -0.68916762527E+01  0.22948199119E+02  0.51100000000E-03 0.  1.
         12    1    3    3    0    0 -0.13804649449E+02  0.55625725070E+01  0.26157712019E+01  0.15111347335E+02  0.00000000000E+00 0. -1.
</event>
<event>
 7    1  0.9175399E-010  0.4778727E+02  0.7816164E-02  0.1312668E+00
        -11   -1    0    0    0    0  0.00000000000E+00  0.00000000000E+00  0.45593999997E+02  0.45594000000E+02  0.51100000000E-03 0. -1.
         11   -1    0    0    0    0 -0.00000000000E+00 -0.00000000000E+00 -0.45593999997E+02  0.45594000000E+02  0.51100000000E-03 0.  1.
    9900012    2    1    2    0    0 -0.14362758411E+02  0.84833410633E-01  0.40955185412E+02  0.47787271457E+02  0.20000001883E+02 0.  0.
        -12    1    1    2    0    0  0.14362758411E+02 -0.84833410633E-01 -0.40955185412E+02  0.43400728543E+02  0.00000000000E+00 0.  1.
         11    1    3    3    0    0 -0.89120491376E+01  0.14570226347E+01  0.42485200427E+01  0.99798525842E+01  0.51100000000E-03 0.  1.
        -11    1    3    3    0    0 -0.41669039604E+01 -0.40318084950E+01  0.28543876887E+02  0.29126817134E+02  0.51100000000E-03 0. -1.
        -12    1    3    3    0    0 -0.12838053132E+01  0.26596192710E+01  0.81627884818E+01  0.86806017388E+01  0.00000000000E+00 0.  1.
</event>
<event>
 7    1  0.9175399E-010  0.4778727E+02  0.7816164E-02  0.1312668E+00
        -11   -1    0    0    0    0  0.00000000000E+00  0.00000000000E+00  0.45593999997E+02  0.45594000000E+02  0.51100000000E-03 0. -1.
         11   -1    0    0    0    0 -0.00000000000E+00 -0.00000000000E+00 -0.45593999997E+02  0.45594000000E+02  0.51100000000E-03 0.  1.
    9900012    2    1    2    0    0 -0.21850976298E+02  0.37248704592E+02  0.43234077914E+01  0.47787274040E+02  0.20000013656E+02 0.  0.
         12    1    1    2    0    0  0.21850976298E+02 -0.37248704592E+02 -0.43234077914E+01  0.43400725960E+02  0.00000000000E+00 0. -1.
         11    1    3    3    0    0 -0.32823174396E+01  0.16564158250E+02  0.13596775401E+01  0.16940887509E+02  0.51100000000E-03 0.  1.
        -11    1    3    3    0    0 -0.65196305678E+01  0.15495163497E+01  0.46724345886E+01  0.81693469080E+01  0.51100000000E-03 0. -1.
        -12    1    3    3    0    0 -0.12049028291E+02  0.19135029992E+02 -0.17087043372E+01  0.22677039623E+02  0.00000000000E+00 0.  1.
</event>
<event>
 7    1  0.9175399E-010  0.4778727E+02  0.7816164E-02  0.1312668E+00
        -11   -1    0    0    0    0  0.00000000000E+00  0.00000000000E+00  0.45593999997E+02  0.45594000000E+02  0.51100000000E-03 0. -1.
         11   -1    0    0    0    0 -0.00000000000E+00 -0.00000000000E+00 -0.45593999997E+02  0.45594000000E+02  0.51100000000E-03 0.  1.
    9900012    2    1    2    0    0  0.32699016561E+02  0.77666188649E+01 -0.27460464792E+02  0.47787272135E+02  0.20000004971E+02 0.  0.
         12    1    1    2    0    0 -0.32699016561E+02 -0.77666188649E+01  0.27460464792E+02  0.43400727865E+02  0.00000000000E+00 0. -1.
         11    1    3    3    0    0  0.24797984226E+01 -0.22553110486E+01 -0.19986225291E+01  0.39026043121E+01  0.51100000000E-03 0. -1.
        -11    1    3    3    0    0  0.68622597058E+01 -0.43205970777E+01 -0.79678566778E+01  0.11368593039E+02  0.51100000000E-03 0.  1.
        -12    1    3    3    0    0  0.23356958433E+02  0.14342526991E+02 -0.17493985585E+02  0.32516074784E+02  0.00000000000E+00 0.  1.
</event>
<event>
 7    1  0.9175399E-010  0.4778727E+02  0.7816164E-02  0.1312668E+00
        -11   -1    0    0    0    0  0.00000000000E+00  0.00000000000E+00  0.45593999997E+02  0.45594000000E+02  0.51100000000E-03 0. -1.
         11   -1    0    0    0    0 -0.00000000000E+00 -0.00000000000E+00 -0.45593999997E+02  0.45594000000E+02  0.51100000000E-03 0.  1.
    9900012    2    1    2    0    0  0.18525134815E+02 -0.38532038840E+02  0.74649065903E+01  0.47787268814E+02  0.19999989832E+02 0.  0.
        -12    1    1    2    0    0 -0.18525134815E+02  0.38532038840E+02 -0.74649065903E+01  0.43400731186E+02  0.00000000000E+00 0.  1.
         11    1    3    3    0    0  0.41302022773E+01 -0.18543073963E+02  0.34906790053E+01  0.19315511979E+02  0.51100000000E-03 0. -1.
        -11    1    3    3    0    0  0.97653810215E+01 -0.29627522669E+01  0.36067079518E+01  0.10823535005E+02  0.51100000000E-03 0.  1.
        -12    1    3    3    0    0  0.46295515159E+01 -0.17026212610E+02  0.36751963316E+00  0.17648221830E+02  0.00000000000E+00 0.  1.
</event>
<event>
 7    1  0.9175399E-010  0.4778728E+02  0.7816164E-02  0.1312668E+00
        -11   -1    0    0    0    0  0.00000000000E+00  0.00000000000E+00  0.45593999997E+02  0.45594000000E+02  0.51100000000E-03 0. -1.
         11   -1    0    0    0    0 -0.00000000000E+00 -0.00000000000E+00 -0.45593999997E+02  0.45594000000E+02  0.51100000000E-03 0.  1.
    9900012    2    1    2    0    0  0.29711774938E+02 -0.49067018508E+01  0.31253116034E+02  0.47787279328E+02  0.20000037767E+02 0.  0.
        -12    1    1    2    0    0 -0.29711774938E+02  0.49067018508E+01 -0.31253116034E+02  0.43400720672E+02  0.00000000000E+00 0.  1.
         11    1    3    3    0    0  0.19467453146E+02 -0.24139489867E+01  0.11859445834E+02  0.22922812599E+02  0.51100000000E-03 0. -1.
        -11    1    3    3    0    0  0.76949255391E+01 -0.96181214671E+00  0.20320251384E+02  0.21749702946E+02  0.51100000000E-03 0.  1.
        -12    1    3    3    0    0  0.25493962530E+01 -0.15309407174E+01 -0.92658118380E+00  0.31147637832E+01  0.00000000000E+00 0.  1.
</event>
<event>
 7    1  0.9175399E-010  0.4778727E+02  0.7816164E-02  0.1312668E+00
        -11   -1    0    0    0    0  0.00000000000E+00  0.00000000000E+00  0.45593999997E+02  0.45594000000E+02  0.51100000000E-03 0. -1.
         11   -1    0    0    0    0 -0.00000000000E+00 -0.00000000000E+00 -0.45593999997E+02  0.45594000000E+02  0.51100000000E-03 0.  1.
    9900012    2    1    2    0    0  0.66619312814E+00  0.12411104715E+02  0.41582974831E+02  0.47787272709E+02  0.20000007590E+02 0.  0.
        -12    1    1    2    0    0 -0.66619312814E+00 -0.12411104715E+02 -0.41582974831E+02  0.43400727291E+02  0.00000000000E+00 0.  1.
         11    1    3    3    0    0  0.66360844346E+01  0.11987042098E+02  0.29876777058E+02  0.32868656841E+02  0.51100000000E-03 0. -1.
        -11    1    3    3    0    0 -0.33398261583E+01  0.22801804018E+01  0.16637313518E+01  0.43728324579E+01  0.51100000000E-03 0.  1.
         12    1    3    3    0    0 -0.26300651481E+01 -0.18561177844E+01  0.10042466422E+02  0.10545783411E+02  0.00000000000E+00 0. -1.
</event>
<event>
 7    1  0.9175399E-010  0.4778727E+02  0.7816164E-02  0.1312668E+00
        -11   -1    0    0    0    0  0.00000000000E+00  0.00000000000E+00  0.45593999997E+02  0.45594000000E+02  0.51100000000E-03 0. -1.
         11   -1    0    0    0    0 -0.00000000000E+00 -0.00000000000E+00 -0.45593999997E+02  0.45594000000E+02  0.51100000000E-03 0.  1.
    9900012    2    1    2    0    0  0.14076203488E+01 -0.42958674075E+02  0.60161848440E+01  0.47787267824E+02  0.19999985315E+02 0.  0.
        -12    1    1    2    0    0 -0.14076203488E+01  0.42958674075E+02 -0.60161848440E+01  0.43400732176E+02  0.00000000000E+00 0.  1.
         11    1    3    3    0    0  0.17295374339E+01 -0.23462835974E+02 -0.52571337097E+01  0.24106709166E+02  0.51100000000E-03 0. -1.
        -11    1    3    3    0    0 -0.16726201356E+01 -0.15990305081E+02  0.11722079202E+02  0.19897101693E+02  0.51100000000E-03 0.  1.
        -12    1    3    3    0    0  0.13507030505E+01 -0.35055330200E+01 -0.44876064861E+00  0.37834569649E+01  0.00000000000E+00 0.  1.
</event>
<event>
 7    1  0.9175399E-010  0.4778727E+02  0.7816164E-02  0.1312668E+00
        -11   -1    0    0    0    0  0.00000000000E+00  0.00000000000E+00  0.45593999997E+02  0.45594000000E+02  0.51100000000E-03 0. -1.
         11   -1    0    0    0    0 -0.00000000000E+00 -0.00000000000E+00 -0.45593999997E+02  0.45594000000E+02  0.51100000000E-03 0.  1.
    9900012    2    1    2    0    0 -0.51522112826E+00 -0.13856754824E+02  0.41126008710E+02  0.47787266141E+02  0.19999977645E+02 0.  0.
        -12    1    1    2    0    0  0.51522112826E+00  0.13856754824E+02 -0.41126008710E+02  0.43400733859E+02  0.00000000000E+00 0.  1.
         11    1    3    3    0    0  0.51080304213E+01 -0.10192162955E+01  0.18665644198E+02  0.19378778347E+02  0.51100000000E-03 0. -1.
        -11    1    3    3    0    0 -0.27997563378E+01 -0.13297546120E+02  0.21415137297E+02  0.25362797048E+02  0.51100000000E-03 0.  1.
        -12    1    3    3    0    0 -0.28234952118E+01  0.46000759187E+00  0.10452272151E+01  0.30456907470E+01  0.00000000000E+00 0.  1.
</event>
<event>
 7    1  0.9175399E-010  0.4778727E+02  0.7816164E-02  0.1312668E+00
        -11   -1    0    0    0    0  0.00000000000E+00  0.00000000000E+00  0.45593999997E+02  0.45594000000E+02  0.51100000000E-03 0. -1.
         11   -1    0    0    0    0 -0.00000000000E+00 -0.00000000000E+00 -0.45593999997E+02  0.45594000000E+02  0.51100000000E-03 0.  1.
    9900012    2    1    2    0    0  0.32525032308E+01 -0.30773968433E+02  0.30430373923E+02  0.47787267662E+02  0.19999984578E+02 0.  0.
        -12    1    1    2    0    0 -0.32525032308E+01  0.30773968433E+02 -0.30430373923E+02  0.43400732338E+02  0.00000000000E+00 0.  1.
         11    1    3    3    0    0  0.94616468494E+01 -0.71699933548E+01  0.10981116119E+02  0.16171471093E+02  0.51100000000E-03 0. -1.
        -11    1    3    3    0    0 -0.45820936069E+01 -0.78631218786E+01  0.70615662653E+01  0.11519113936E+02  0.51100000000E-03 0.  1.
         12    1    3    3    0    0 -0.16270500117E+01 -0.15740853200E+02  0.12387691538E+02  0.20096682633E+02  0.00000000000E+00 0. -1.
</event>
<event>
 7    1  0.9175399E-010  0.4778727E+02  0.7816164E-02  0.1312668E+00
        -11   -1    0    0    0    0  0.00000000000E+00  0.00000000000E+00  0.45593999997E+02  0.45594000000E+02  0.51100000000E-03 0.  1.
         11   -1    0    0    0    0 -0.00000000000E+00 -0.00000000000E+00 -0.45593999997E+02  0.45594000000E+02  0.51100000000E-03 0. -1.
    9900012    2    1    2    0    0 -0.42454798521E+02 -0.68475100578E+01  0.58587661847E+01  0.47787268985E+02  0.19999990610E+02 0.  0.
        -12    1    1    2    0    0  0.42454798521E+02  0.68475100578E+01 -0.58587661847E+01  0.43400731015E+02  0.00000000000E+00 0.  1.
         11    1    3    3    0    0 -0.27191065214E+02 -0.68694934622E+01  0.39056289239E+01  0.28316036189E+02  0.51100000000E-03 0. -1.
        -11    1    3    3    0    0 -0.95723480763E+00 -0.58030206055E+00 -0.38585275775E+01  0.40176217201E+01  0.51100000000E-03 0.  1.
        -12    1    3    3    0    0 -0.14306498499E+02  0.60228546497E+00  0.58116648383E+01  0.15453611076E+02  0.00000000000E+00 0.  1.
</event>
<event>
 7    1  0.9175399E-010  0.4778726E+02  0.7816164E-02  0.1312668E+00
        -11   -1    0    0    0    0  0.00000000000E+00  0.00000000000E+00  0.45593999997E+02  0.45594000000E+02  0.51100000000E-03 0. -1.
         11   -1    0    0    0    0 -0.00000000000E+00 -0.00000000000E+00 -0.45593999997E+02  0.45594000000E+02  0.51100000000E-03 0.  1.
    9900012    2    1    2    0    0  0.11515803119E+02  0.28242745441E+02  0.30876486599E+02  0.47787264797E+02  0.19999971514E+02 0.  0.
        -12    1    1    2    0    0 -0.11515803119E+02 -0.28242745441E+02 -0.30876486599E+02  0.43400735203E+02  0.00000000000E+00 0.  1.
         11    1    3    3    0    0  0.57201550836E+01  0.11374959587E+02  0.10523080936E+02  0.16518023866E+02  0.51100000000E-03 0. -1.
        -11    1    3    3    0    0  0.58935138004E+01  0.92059031021E+01  0.16468315615E+01  0.11054149053E+02  0.51100000000E-03 0.  1.
        -12    1    3    3    0    0 -0.97865765044E-01  0.76618827516E+01  0.18706574101E+02  0.20215091878E+02  0.00000000000E+00 0.  1.
</event>
<event>
 7    1  0.1025976E-009  0.4778727E+02  0.7816164E-02  0.1312668E+00
        -11   -1    0    0    0    0  0.00000000000E+00  0.00000000000E+00  0.45593999997E+02  0.45594000000E+02  0.51100000000E-03 0. -1.
         11   -1    0    0    0    0 -0.00000000000E+00 -0.00000000000E+00 -0.45593999997E+02  0.45594000000E+02  0.51100000000E-03 0.  1.
    9900012    2    1    2    0    0 -0.68488779293E+01 -0.18159026526E+02 -0.38819661458E+02  0.47787268566E+02  0.19999988699E+02 0.  0.
         12    1    1    2    0    0  0.68488779293E+01  0.18159026526E+02  0.38819661458E+02  0.43400731434E+02  0.00000000000E+00 0. -1.
         11    1    3    3    0    0  0.54386361698E+01 -0.41005931899E+01 -0.44790335497E+01  0.81520162964E+01  0.51100000000E-03 0. -1.
        -11    1    3    3    0    0 -0.83913361330E+01 -0.79132995800E+01 -0.26697615984E+02  0.29082598437E+02  0.51100000000E-03 0.  1.
         12    1    3    3    0    0 -0.38961779662E+01 -0.61451337565E+01 -0.76430119248E+01  0.10552653833E+02  0.00000000000E+00 0. -1.
</event>
<event>
 7    1  0.9175399E-010  0.4778727E+02  0.7816164E-02  0.1312668E+00
        -11   -1    0    0    0    0  0.00000000000E+00  0.00000000000E+00  0.45593999997E+02  0.45594000000E+02  0.51100000000E-03 0. -1.
         11   -1    0    0    0    0 -0.00000000000E+00 -0.00000000000E+00 -0.45593999997E+02  0.45594000000E+02  0.51100000000E-03 0.  1.
    9900012    2    1    2    0    0 -0.30393566054E+02 -0.83167860908E+01  0.29844359758E+02  0.47787267313E+02  0.19999982988E+02 0.  0.
        -12    1    1    2    0    0  0.30393566054E+02  0.83167860908E+01 -0.29844359758E+02  0.43400732687E+02  0.00000000000E+00 0.  1.
         11    1    3    3    0    0 -0.19465266534E+02 -0.12994221883E+02  0.21183698361E+02  0.31567316644E+02  0.51100000000E-03 0. -1.
        -11    1    3    3    0    0 -0.26446137128E+01  0.43325245948E+01  0.15774888042E+01  0.53153760208E+01  0.51100000000E-03 0.  1.
         12    1    3    3    0    0 -0.82836858070E+01  0.34491119731E+00  0.70831725924E+01  0.10904574648E+02  0.00000000000E+00 0. -1.
</event>
<event>
 7    1  0.9175399E-010  0.4778728E+02  0.7816164E-02  0.1312668E+00
        -11   -1    0    0    0    0  0.00000000000E+00  0.00000000000E+00  0.45593999997E+02  0.45594000000E+02  0.51100000000E-03 0. -1.
         11   -1    0    0    0    0 -0.00000000000E+00 -0.00000000000E+00 -0.45593999997E+02  0.45594000000E+02  0.51100000000E-03 0.  1.
    9900012    2    1    2    0    0 -0.24150175025E+02  0.37249028917E+01 -0.35868044121E+02  0.47787280601E+02  0.20000043570E+02 0.  0.
         12    1    1    2    0    0  0.24150175025E+02 -0.37249028917E+01  0.35868044121E+02  0.43400719399E+02  0.00000000000E+00 0. -1.
         11    1    3    3    0    0 -0.27424284717E+01 -0.20239568727E+01 -0.11372868271E+01  0.35931513930E+01  0.51100000000E-03 0. -1.
        -11    1    3    3    0    0 -0.67924994902E+01  0.63389813751E+01 -0.39130484190E+01  0.10081303606E+02  0.51100000000E-03 0.  1.
        -12    1    3    3    0    0 -0.14615247063E+02 -0.59012161075E+00 -0.30817708875E+02  0.34112825602E+02  0.00000000000E+00 0.  1.
</event>
<event>
 7    1  0.9175399E-010  0.4778727E+02  0.7816164E-02  0.1312668E+00
        -11   -1    0    0    0    0  0.00000000000E+00  0.00000000000E+00  0.45593999997E+02  0.45594000000E+02  0.51100000000E-03 0. -1.
         11   -1    0    0    0    0 -0.00000000000E+00 -0.00000000000E+00 -0.45593999997E+02  0.45594000000E+02  0.51100000000E-03 0.  1.
    9900012    2    1    2    0    0 -0.36744042367E+02 -0.67404806102E+01  0.22092181280E+02  0.47787271872E+02  0.20000003773E+02 0.  0.
        -12    1    1    2    0    0  0.36744042367E+02  0.67404806102E+01 -0.22092181280E+02  0.43400728128E+02  0.00000000000E+00 0.  1.
         11    1    3    3    0    0 -0.29218538903E+02 -0.18488465733E+01  0.12427383905E+02  0.31805363074E+02  0.51100000000E-03 0. -1.
        -11    1    3    3    0    0 -0.41219793686E+01  0.22457979122E+01  0.47140165191E+01  0.66525389274E+01  0.51100000000E-03 0.  1.
         12    1    3    3    0    0 -0.34035240951E+01 -0.71374319492E+01  0.49507808566E+01  0.93293698707E+01  0.00000000000E+00 0. -1.
</event>
<event>
 7    1  0.9175399E-010  0.4778728E+02  0.7816164E-02  0.1312668E+00
        -11   -1    0    0    0    0  0.00000000000E+00  0.00000000000E+00  0.45593999997E+02  0.45594000000E+02  0.51100000000E-03 0. -1.
         11   -1    0    0    0    0 -0.00000000000E+00 -0.00000000000E+00 -0.45593999997E+02  0.45594000000E+02  0.51100000000E-03 0.  1.
    9900012    2    1    2    0    0 -0.34002537767E+02 -0.44900839020E+01 -0.26594908083E+02  0.47787279222E+02  0.20000037286E+02 0.  0.
         12    1    1    2    0    0  0.34002537767E+02  0.44900839020E+01  0.26594908083E+02  0.43400720778E+02  0.00000000000E+00 0. -1.
         11    1    3    3    0    0  0.38327600802E+00  0.18803223725E+01 -0.68219806581E+01  0.70867434752E+01  0.51100000000E-03 0. -1.
        -11    1    3    3    0    0 -0.19886613055E+02 -0.52563710432E+01 -0.83135471988E+01  0.22186074070E+02  0.51100000000E-03 0.  1.
         12    1    3    3    0    0 -0.14499200721E+02 -0.11140352313E+01 -0.11459380226E+02  0.18514461677E+02  0.00000000000E+00 0. -1.
</event>
<event>
 7    1  0.9175399E-010  0.4778727E+02  0.7816164E-02  0.1312668E+00
        -11   -1    0    0    0    0  0.00000000000E+00  0.00000000000E+00  0.45593999997E+02  0.45594000000E+02  0.51100000000E-03 0. -1.
         11   -1    0    0    0    0 -0.00000000000E+00 -0.00000000000E+00 -0.45593999997E+02  0.45594000000E+02  0.51100000000E-03 0.  1.
    9900012    2    1    2    0    0 -0.25734527477E+02 -0.26816334548E+02 -0.22410746753E+02  0.47787271054E+02  0.20000000042E+02 0.  0.
         12    1    1    2    0    0  0.25734527477E+02  0.26816334548E+02  0.22410746753E+02  0.43400728946E+02  0.00000000000E+00 0. -1.
         11    1    3    3    0    0 -0.72514846762E+01 -0.21132480582E+02 -0.14748770041E+02  0.26771103517E+02  0.51100000000E-03 0. -1.
        -11    1    3    3    0    0 -0.16708190061E+02 -0.55803419390E+01 -0.60765322115E+01  0.18634056865E+02  0.51100000000E-03 0.  1.
         12    1    3    3    0    0 -0.17748527398E+01 -0.10351202710E+00 -0.15854445004E+01  0.23821106716E+01  0.00000000000E+00 0. -1.
</event>
<event>
 7    1  0.9175399E-010  0.4778727E+02  0.7816164E-02  0.1312668E+00
        -11   -1    0    0    0    0  0.00000000000E+00  0.00000000000E+00  0.45593999997E+02  0.45594000000E+02  0.51100000000E-03 0. -1.
         11   -1    0    0    0    0 -0.00000000000E+00 -0.00000000000E+00 -0.45593999997E+02  0.45594000000E+02  0.51100000000E-03 0.  1.
    9900012    2    1    2    0    0  0.10931733866E+02  0.39948080469E+02  0.12971945985E+02  0.47787270500E+02  0.19999997518E+02 0.  0.
        -12    1    1    2    0    0 -0.10931733866E+02 -0.39948080469E+02 -0.12971945985E+02  0.43400729500E+02  0.00000000000E+00 0.  1.
         11    1    3    3    0    0  0.89324477570E+01  0.11634079995E+02  0.10335297287E+01  0.14704034284E+02  0.51100000000E-03 0. -1.
        -11    1    3    3    0    0 -0.41144729426E+01  0.16312359045E+02  0.34829389373E+01  0.17180011907E+02  0.51100000000E-03 0.  1.
         12    1    3    3    0    0  0.61137590520E+01  0.12001641429E+02  0.84554773194E+01  0.15903224309E+02  0.00000000000E+00 0. -1.
</event>
<event>
 7    1  0.9175399E-010  0.4778727E+02  0.7816164E-02  0.1312668E+00
        -11   -1    0    0    0    0  0.00000000000E+00  0.00000000000E+00  0.45593999997E+02  0.45594000000E+02  0.51100000000E-03 0. -1.
         11   -1    0    0    0    0 -0.00000000000E+00 -0.00000000000E+00 -0.45593999997E+02  0.45594000000E+02  0.51100000000E-03 0.  1.
    9900012    2    1    2    0    0  0.27045133346E+02  0.23334801847E+01  0.33863538519E+02  0.47787267189E+02  0.19999982421E+02 0.  0.
        -12    1    1    2    0    0 -0.27045133346E+02 -0.23334801847E+01 -0.33863538519E+02  0.43400732811E+02  0.00000000000E+00 0.  1.
         11    1    3    3    0    0  0.22324644743E+02  0.42561553549E+01  0.20152204109E+02  0.30374593858E+02  0.51100000000E-03 0. -1.
        -11    1    3    3    0    0  0.44427570264E+01 -0.79923511993E+00  0.96774224644E+00  0.46166429458E+01  0.51100000000E-03 0.  1.
         12    1    3    3    0    0  0.27773157626E+00 -0.11234400503E+01  0.12743592164E+02  0.12796030385E+02  0.00000000000E+00 0. -1.
</event>
<event>
 7    1  0.9175399E-010  0.4778727E+02  0.7816164E-02  0.1312668E+00
        -11   -1    0    0    0    0  0.00000000000E+00  0.00000000000E+00  0.45593999997E+02  0.45594000000E+02  0.51100000000E-03 0. -1.
         11   -1    0    0    0    0 -0.00000000000E+00 -0.00000000000E+00 -0.45593999997E+02  0.45594000000E+02  0.51100000000E-03 0.  1.
    9900012    2    1    2    0    0 -0.13471143704E+02 -0.30143837348E+02  0.28169141418E+02  0.47787272229E+02  0.20000005403E+02 0.  0.
        -12    1    1    2    0    0  0.13471143704E+02  0.30143837348E+02 -0.28169141418E+02  0.43400727771E+02  0.00000000000E+00 0.  1.
         11    1    3    3    0    0 -0.60579295985E+01 -0.72724679796E+01 -0.82526940252E+00  0.95009668657E+01  0.51100000000E-03 0. -1.
        -11    1    3    3    0    0 -0.86799239157E+00 -0.11837514980E+02  0.10969200569E+02  0.16161792385E+02  0.51100000000E-03 0.  1.
         12    1    3    3    0    0 -0.65452217143E+01 -0.11033854388E+02  0.18025210251E+02  0.22124512979E+02  0.00000000000E+00 0. -1.
</event>
<event>
 7    1  0.9175399E-010  0.4778730E+02  0.7816164E-02  0.1312668E+00
        -11   -1    0    0    0    0  0.00000000000E+00  0.00000000000E+00  0.45593999997E+02  0.45594000000E+02  0.51100000000E-03 0. -1.
         11   -1    0    0    0    0 -0.00000000000E+00 -0.00000000000E+00 -0.45593999997E+02  0.45594000000E+02  0.51100000000E-03 0.  1.
    9900012    2    1    2    0    0  0.96555214303E+01 -0.29232666288E+02 -0.30591550263E+02  0.47787299316E+02  0.20000128902E+02 0.  0.
         12    1    1    2    0    0 -0.96555214303E+01  0.29232666288E+02  0.30591550263E+02  0.43400700684E+02  0.00000000000E+00 0. -1.
         11    1    3    3    0    0  0.33792277030E+01  0.33643171940E+00  0.66896660229E+00  0.34611967218E+01  0.51100000000E-03 0. -1.
        -11    1    3    3    0    0  0.44948961542E+01 -0.18490593697E+02 -0.25186286557E+02  0.31566678278E+02  0.51100000000E-03 0.  1.
        -12    1    3    3    0    0  0.17813975731E+01 -0.11078504310E+02 -0.60742303079E+01  0.12759424317E+02  0.00000000000E+00 0.  1.
</event>
<event>
 7    1  0.9175399E-010  0.4778727E+02  0.7816164E-02  0.1312668E+00
        -11   -1    0    0    0    0  0.00000000000E+00  0.00000000000E+00  0.45593999997E+02  0.45594000000E+02  0.51100000000E-03 0. -1.
         11   -1    0    0    0    0 -0.00000000000E+00 -0.00000000000E+00 -0.45593999997E+02  0.45594000000E+02  0.51100000000E-03 0.  1.
    9900012    2    1    2    0    0 -0.10839560924E+02  0.29043411119E+02  0.30374459200E+02  0.47787267493E+02  0.19999983808E+02 0.  0.
        -12    1    1    2    0    0  0.10839560924E+02 -0.29043411119E+02 -0.30374459200E+02  0.43400732507E+02  0.00000000000E+00 0.  1.
         11    1    3    3    0    0 -0.31805013908E+01  0.22321507582E+02  0.16059486732E+02  0.27681625750E+02  0.51100000000E-03 0. -1.
        -11    1    3    3    0    0 -0.49704199273E+01  0.28150092128E+01  0.14261248636E+02  0.15362700415E+02  0.51100000000E-03 0.  1.
         12    1    3    3    0    0 -0.26886396059E+01  0.39068943241E+01  0.53723832305E-01  0.47429413279E+01  0.00000000000E+00 0. -1.
</event>
<event>
 7    1  0.1607831E-009  0.4778727E+02  0.7816164E-02  0.1312668E+00
        -11   -1    0    0    0    0  0.00000000000E+00  0.00000000000E+00  0.45593999997E+02  0.45594000000E+02  0.51100000000E-03 0. -1.
         11   -1    0    0    0    0 -0.00000000000E+00 -0.00000000000E+00 -0.45593999997E+02  0.45594000000E+02  0.51100000000E-03 0.  1.
    9900012    2    1    2    0    0  0.23381493915E+01  0.25145304215E+02 -0.35296887095E+02  0.47787268379E+02  0.19999987847E+02 0.  0.
         12    1    1    2    0    0 -0.23381493915E+01 -0.25145304215E+02  0.35296887095E+02  0.43400731621E+02  0.00000000000E+00 0. -1.
         11    1    3    3    0    0 -0.57911828034E+01  0.94973828418E+01 -0.11502479524E+02  0.16001409768E+02  0.51100000000E-03 0. -1.
        -11    1    3    3    0    0  0.85000035141E+01  0.16980906347E+02 -0.19268565301E+02  0.27053259492E+02  0.51100000000E-03 0.  1.
         12    1    3    3    0    0 -0.37067131922E+00 -0.13329849739E+01 -0.45258422704E+01  0.47325991193E+01  0.00000000000E+00 0. -1.
</event>
<event>
 7    1  0.9175399E-010  0.4778727E+02  0.7816164E-02  0.1312668E+00
        -11   -1    0    0    0    0  0.00000000000E+00  0.00000000000E+00  0.45593999997E+02  0.45594000000E+02  0.51100000000E-03 0. -1.
         11   -1    0    0    0    0 -0.00000000000E+00 -0.00000000000E+00 -0.45593999997E+02  0.45594000000E+02  0.51100000000E-03 0.  1.
    9900012    2    1    2    0    0  0.31469854111E+02 -0.15548548346E+02 -0.25524777637E+02  0.47787270203E+02  0.19999996166E+02 0.  0.
         12    1    1    2    0    0 -0.31469854111E+02  0.15548548346E+02  0.25524777637E+02  0.43400729797E+02  0.00000000000E+00 0. -1.
         11    1    3    3    0    0  0.20354171449E+02 -0.74857267083E+01 -0.21510237471E+02  0.30545355065E+02  0.51100000000E-03 0.  1.
        -11    1    3    3    0    0  0.38802810023E+01 -0.62584665893E+01  0.20348468978E+01  0.76397373557E+01  0.51100000000E-03 0. -1.
         12    1    3    3    0    0  0.72354016598E+01 -0.18043550483E+01 -0.60493870640E+01  0.96021777826E+01  0.00000000000E+00 0. -1.
</event>
<event>
 7    1  0.9175399E-010  0.4778725E+02  0.7816164E-02  0.1312668E+00
        -11   -1    0    0    0    0  0.00000000000E+00  0.00000000000E+00  0.45593999997E+02  0.45594000000E+02  0.51100000000E-03 0. -1.
         11   -1    0    0    0    0 -0.00000000000E+00 -0.00000000000E+00 -0.45593999997E+02  0.45594000000E+02  0.51100000000E-03 0.  1.
    9900012    2    1    2    0    0 -0.20918484392E+02  0.23516884956E+02  0.29883069307E+02  0.47787254632E+02  0.19999925169E+02 0.  0.
        -12    1    1    2    0    0  0.20918484392E+02 -0.23516884956E+02 -0.29883069307E+02  0.43400745368E+02  0.00000000000E+00 0.  1.
         11    1    3    3    0    0 -0.16462840986E+02  0.17390429205E+02  0.24384600113E+02  0.34176905714E+02  0.51100000000E-03 0. -1.
        -11    1    3    3    0    0  0.59615054772E+00 -0.10645252209E+01  0.46200628615E+01  0.47784506409E+01  0.51100000000E-03 0.  1.
         12    1    3    3    0    0 -0.50517939540E+01  0.71909809717E+01  0.87840633220E+00  0.88318982769E+01  0.00000000000E+00 0. -1.
</event>
<event>
 7    1  0.9175399E-010  0.4778727E+02  0.7816164E-02  0.1312668E+00
        -11   -1    0    0    0    0  0.00000000000E+00  0.00000000000E+00  0.45593999997E+02  0.45594000000E+02  0.51100000000E-03 0. -1.
         11   -1    0    0    0    0 -0.00000000000E+00 -0.00000000000E+00 -0.45593999997E+02  0.45594000000E+02  0.51100000000E-03 0.  1.
    9900012    2    1    2    0    0 -0.12774144343E+02  0.16192092635E+02  0.38187176491E+02  0.47787273325E+02  0.20000010397E+02 0.  0.
        -12    1    1    2    0    0  0.12774144343E+02 -0.16192092635E+02 -0.38187176491E+02  0.43400726675E+02  0.00000000000E+00 0.  1.
         11    1    3    3    0    0 -0.12163716776E+02  0.10702518216E+02  0.14659460581E+02  0.21849477951E+02  0.51100000000E-03 0. -1.
        -11    1    3    3    0    0 -0.53077918800E+00  0.63419863902E+01  0.24088059680E+02  0.24914596873E+02  0.51100000000E-03 0.  1.
        -12    1    3    3    0    0 -0.79648379179E-01 -0.85241197085E+00 -0.56034376976E+00  0.10231985011E+01  0.00000000000E+00 0.  1.
</event>
<event>
 7    1  0.9175399E-010  0.4778727E+02  0.7816164E-02  0.1312668E+00
        -11   -1    0    0    0    0  0.00000000000E+00  0.00000000000E+00  0.45593999997E+02  0.45594000000E+02  0.51100000000E-03 0. -1.
         11   -1    0    0    0    0 -0.00000000000E+00 -0.00000000000E+00 -0.45593999997E+02  0.45594000000E+02  0.51100000000E-03 0.  1.
    9900012    2    1    2    0    0 -0.12695816893E+02  0.23844056664E+02 -0.33969115506E+02  0.47787267137E+02  0.19999982185E+02 0.  0.
         12    1    1    2    0    0  0.12695816893E+02 -0.23844056664E+02  0.33969115506E+02  0.43400732863E+02  0.00000000000E+00 0. -1.
         11    1    3    3    0    0 -0.31824620773E+01  0.34376001236E+01 -0.17803817705E+01  0.50114787232E+01  0.51100000000E-03 0. -1.
        -11    1    3    3    0    0 -0.11831269488E+02  0.67644783135E+01 -0.11220546148E+02  0.17653264873E+02  0.51100000000E-03 0.  1.
        -12    1    3    3    0    0  0.23179146720E+01  0.13641978227E+02 -0.20968187588E+02  0.25122523541E+02  0.00000000000E+00 0.  1.
</event>
<event>
 7    1  0.9175399E-010  0.4778727E+02  0.7816164E-02  0.1312668E+00
        -11   -1    0    0    0    0  0.00000000000E+00  0.00000000000E+00  0.45593999997E+02  0.45594000000E+02  0.51100000000E-03 0. -1.
         11   -1    0    0    0    0 -0.00000000000E+00 -0.00000000000E+00 -0.45593999997E+02  0.45594000000E+02  0.51100000000E-03 0.  1.
    9900012    2    1    2    0    0 -0.73442798429E+01  0.13883089236E+02  0.40459172165E+02  0.47787271602E+02  0.20000002544E+02 0.  0.
        -12    1    1    2    0    0  0.73442798429E+01 -0.13883089236E+02 -0.40459172165E+02  0.43400728398E+02  0.00000000000E+00 0.  1.
         11    1    3    3    0    0 -0.54935456538E+00  0.21333249463E+01  0.11333107528E+02  0.11545223786E+02  0.51100000000E-03 0. -1.
        -11    1    3    3    0    0  0.11386189649E+01  0.12637715216E+02  0.22651658512E+02  0.25963550078E+02  0.51100000000E-03 0.  1.
        -12    1    3    3    0    0 -0.79335442424E+01 -0.88795092613E+00  0.64744061250E+01  0.10278497739E+02  0.00000000000E+00 0.  1.
</event>
<event>
 7    1  0.9175399E-010  0.4778727E+02  0.7816164E-02  0.1312668E+00
        -11   -1    0    0    0    0  0.00000000000E+00  0.00000000000E+00  0.45593999997E+02  0.45594000000E+02  0.51100000000E-03 0. -1.
         11   -1    0    0    0    0 -0.00000000000E+00 -0.00000000000E+00 -0.45593999997E+02  0.45594000000E+02  0.51100000000E-03 0.  1.
    9900012    2    1    2    0    0  0.37911021881E+02  0.17430673377E+02  0.11939392160E+02  0.47787273743E+02  0.20000012306E+02 0.  0.
        -12    1    1    2    0    0 -0.37911021881E+02 -0.17430673377E+02 -0.11939392160E+02  0.43400726257E+02  0.00000000000E+00 0.  1.
         11    1    3    3    0    0  0.21311464794E+02  0.12792483820E+02  0.11477512336E+01  0.24882594461E+02  0.51100000000E-03 0. -1.
        -11    1    3    3    0    0  0.14165799718E+02  0.97484072454E+00  0.11717975872E+02  0.18410082968E+02  0.51100000000E-03 0.  1.
        -12    1    3    3    0    0  0.24337573688E+01  0.36633488329E+01 -0.92633494533E+00  0.44945963148E+01  0.00000000000E+00 0.  1.
</event>
<event>
 7    1  0.9175399E-010  0.4778725E+02  0.7816164E-02  0.1312668E+00
        -11   -1    0    0    0    0  0.00000000000E+00  0.00000000000E+00  0.45593999997E+02  0.45594000000E+02  0.51100000000E-03 0. -1.
         11   -1    0    0    0    0 -0.00000000000E+00 -0.00000000000E+00 -0.45593999997E+02  0.45594000000E+02  0.51100000000E-03 0.  1.
    9900012    2    1    2    0    0 -0.23508469428E+02 -0.28653238407E+02  0.22582488441E+02  0.47787251271E+02  0.19999909846E+02 0.  0.
        -12    1    1    2    0    0  0.23508469428E+02  0.28653238407E+02 -0.22582488441E+02  0.43400748729E+02  0.00000000000E+00 0.  1.
         11    1    3    3    0    0 -0.27896595495E+01 -0.15805921813E+02  0.50330540031E+01  0.16820850086E+02  0.51100000000E-03 0. -1.
        -11    1    3    3    0    0 -0.98444068377E+01 -0.21091205927E+01  0.87026534944E+01  0.13307776440E+02  0.51100000000E-03 0.  1.
        -12    1    3    3    0    0 -0.10874403041E+02 -0.10738196002E+02  0.88467809433E+01  0.17658624746E+02  0.00000000000E+00 0.  1.
</event>
<event>
 7    1  0.9175399E-010  0.4778726E+02  0.7816164E-02  0.1312668E+00
        -11   -1    0    0    0    0  0.00000000000E+00  0.00000000000E+00  0.45593999997E+02  0.45594000000E+02  0.51100000000E-03 0. -1.
         11   -1    0    0    0    0 -0.00000000000E+00 -0.00000000000E+00 -0.45593999997E+02  0.45594000000E+02  0.51100000000E-03 0.  1.
    9900012    2    1    2    0    0  0.19329192809E+02 -0.84664313882E+01  0.37925264701E+02  0.47787264318E+02  0.19999969331E+02 0.  0.
        -12    1    1    2    0    0 -0.19329192809E+02  0.84664313882E+01 -0.37925264701E+02  0.43400735682E+02  0.00000000000E+00 0.  1.
         11    1    3    3    0    0  0.13446669375E+02 -0.19638603096E+01  0.16966713110E+02  0.21737962614E+02  0.51100000000E-03 0. -1.
        -11    1    3    3    0    0 -0.88493485400E+00 -0.20934910302E+01 -0.11242663399E+01  0.25357029505E+01  0.51100000000E-03 0.  1.
         12    1    3    3    0    0  0.67674582881E+01 -0.44090800484E+01  0.22082817931E+02  0.23513598753E+02  0.00000000000E+00 0. -1.
</event>
<event>
 7    1  0.9175399E-010  0.4778727E+02  0.7816164E-02  0.1312668E+00
        -11   -1    0    0    0    0  0.00000000000E+00  0.00000000000E+00  0.45593999997E+02  0.45594000000E+02  0.51100000000E-03 0. -1.
         11   -1    0    0    0    0 -0.00000000000E+00 -0.00000000000E+00 -0.45593999997E+02  0.45594000000E+02  0.51100000000E-03 0.  1.
    9900012    2    1    2    0    0 -0.61252132544E+01  0.75859405617E+01  0.42291353816E+02  0.47787270292E+02  0.19999996568E+02 0.  0.
        -12    1    1    2    0    0  0.61252132544E+01 -0.75859405617E+01 -0.42291353816E+02  0.43400729708E+02  0.00000000000E+00 0.  1.
         11    1    3    3    0    0  0.30838728508E+01  0.72092816835E+01  0.99327813453E+01  0.12654807769E+02  0.51100000000E-03 0. -1.
        -11    1    3    3    0    0 -0.58933332210E+01 -0.14934525310E+01  0.30096283652E+02  0.30704202755E+02  0.51100000000E-03 0.  1.
         12    1    3    3    0    0 -0.33157528841E+01  0.18701114091E+01  0.22622888192E+01  0.44282597679E+01  0.00000000000E+00 0. -1.
</event>
<event>
 7    1  0.9175399E-010  0.4778728E+02  0.7816164E-02  0.1312668E+00
        -11   -1    0    0    0    0  0.00000000000E+00  0.00000000000E+00  0.45593999997E+02  0.45594000000E+02  0.51100000000E-03 0. -1.
         11   -1    0    0    0    0 -0.00000000000E+00 -0.00000000000E+00 -0.45593999997E+02  0.45594000000E+02  0.51100000000E-03 0.  1.
    9900012    2    1    2    0    0 -0.83167452015E+01  0.15995008116E+02 -0.39479290535E+02  0.47787275161E+02  0.20000018770E+02 0.  0.
         12    1    1    2    0    0  0.83167452015E+01 -0.15995008116E+02  0.39479290535E+02  0.43400724839E+02  0.00000000000E+00 0. -1.
         11    1    3    3    0    0 -0.52268155520E+01  0.15148925277E+02 -0.21423837656E+02  0.26754258690E+02  0.51100000000E-03 0. -1.
        -11    1    3    3    0    0 -0.56848163958E+01 -0.13685712045E+01 -0.55183156387E+01  0.80400206683E+01  0.51100000000E-03 0.  1.
         12    1    3    3    0    0  0.25948867463E+01  0.22146540427E+01 -0.12537137241E+02  0.12992995803E+02  0.00000000000E+00 0. -1.
</event>
<event>
 7    1  0.9175399E-010  0.4778727E+02  0.7816164E-02  0.1312668E+00
        -11   -1    0    0    0    0  0.00000000000E+00  0.00000000000E+00  0.45593999997E+02  0.45594000000E+02  0.51100000000E-03 0. -1.
         11   -1    0    0    0    0 -0.00000000000E+00 -0.00000000000E+00 -0.45593999997E+02  0.45594000000E+02  0.51100000000E-03 0.  1.
    9900012    2    1    2    0    0 -0.20750375649E+02  0.12486018598E+02  0.36015893532E+02  0.47787270318E+02  0.19999996689E+02 0.  0.
        -12    1    1    2    0    0  0.20750375649E+02 -0.12486018598E+02 -0.36015893532E+02  0.43400729682E+02  0.00000000000E+00 0.  1.
         11    1    3    3    0    0 -0.16625513685E+01  0.45288225938E+01  0.75860454408E+01  0.89901277427E+01  0.51100000000E-03 0. -1.
        -11    1    3    3    0    0 -0.77242658561E+01  0.57671124037E+01  0.18615313175E+01  0.98177985109E+01  0.51100000000E-03 0.  1.
        -12    1    3    3    0    0 -0.11363558424E+02  0.21900836006E+01  0.26568316774E+02  0.28979344065E+02  0.00000000000E+00 0.  1.
</event>
<event>
 7    1  0.9175399E-010  0.4778727E+02  0.7816164E-02  0.1312668E+00
        -11   -1    0    0    0    0  0.00000000000E+00  0.00000000000E+00  0.45593999997E+02  0.45594000000E+02  0.51100000000E-03 0. -1.
         11   -1    0    0    0    0 -0.00000000000E+00 -0.00000000000E+00 -0.45593999997E+02  0.45594000000E+02  0.51100000000E-03 0.  1.
    9900012    2    1    2    0    0 -0.39880951099E+02 -0.12658056861E+02  0.11528515581E+02  0.47787270334E+02  0.19999996761E+02 0.  0.
        -12    1    1    2    0    0  0.39880951099E+02  0.12658056861E+02 -0.11528515581E+02  0.43400729666E+02  0.00000000000E+00 0.  1.
         11    1    3    3    0    0 -0.34056346597E+02 -0.60912300244E+01  0.39603547546E+01  0.34822725866E+02  0.51100000000E-03 0. -1.
        -11    1    3    3    0    0 -0.50274103390E+01 -0.54239799499E+01  0.85162070951E+01  0.11279193090E+02  0.51100000000E-03 0.  1.
        -12    1    3    3    0    0 -0.79719416310E+00 -0.11428468867E+01 -0.94804626822E+00  0.16853513778E+01  0.00000000000E+00 0.  1.
</event>
<event>
 7    1  0.9175399E-010  0.4778727E+02  0.7816164E-02  0.1312668E+00
        -11   -1    0    0    0    0  0.00000000000E+00  0.00000000000E+00  0.45593999997E+02  0.45594000000E+02  0.51100000000E-03 0. -1.
         11   -1    0    0    0    0 -0.00000000000E+00 -0.00000000000E+00 -0.45593999997E+02  0.45594000000E+02  0.51100000000E-03 0.  1.
    9900012    2    1    2    0    0  0.16037088427E+02 -0.22596525082E+01 -0.40265727542E+02  0.47787273634E+02  0.20000011805E+02 0.  0.
         12    1    1    2    0    0 -0.16037088427E+02  0.22596525082E+01  0.40265727542E+02  0.43400726366E+02  0.00000000000E+00 0. -1.
         11    1    3    3    0    0  0.62394135613E+01 -0.17979965071E+00 -0.12598560466E+01  0.63678761783E+01  0.51100000000E-03 0. -1.
        -11    1    3    3    0    0  0.10409746047E+02 -0.24753359240E+01 -0.39225177360E+02  0.40658389539E+02  0.51100000000E-03 0.  1.
         12    1    3    3    0    0 -0.61207118152E+00  0.39548306648E+00  0.21930586479E+00  0.76100791681E+00  0.00000000000E+00 0. -1.
</event>
<event>
 7    1  0.9175399E-010  0.4778726E+02  0.7816164E-02  0.1312668E+00
        -11   -1    0    0    0    0  0.00000000000E+00  0.00000000000E+00  0.45593999997E+02  0.45594000000E+02  0.51100000000E-03 0. -1.
         11   -1    0    0    0    0 -0.00000000000E+00 -0.00000000000E+00 -0.45593999997E+02  0.45594000000E+02  0.51100000000E-03 0.  1.
    9900012    2    1    2    0    0 -0.19373084746E+02  0.70155858544E+01  0.38198027136E+02  0.47787261129E+02  0.19999954792E+02 0.  0.
        -12    1    1    2    0    0  0.19373084746E+02 -0.70155858544E+01 -0.38198027136E+02  0.43400738871E+02  0.00000000000E+00 0.  1.
         11    1    3    3    0    0 -0.14616130374E+02  0.43756618088E+01  0.21703872980E+02  0.26529903618E+02  0.51100000000E-03 0. -1.
        -11    1    3    3    0    0  0.27341665501E+01  0.36300643178E+01  0.21127103386E+01  0.50116443321E+01  0.51100000000E-03 0.  1.
        -12    1    3    3    0    0 -0.74911209226E+01 -0.99014027219E+00  0.14381443817E+02  0.16245713180E+02  0.00000000000E+00 0.  1.
</event>
<event>
 7    1  0.9175399E-010  0.4778727E+02  0.7816164E-02  0.1312668E+00
        -11   -1    0    0    0    0  0.00000000000E+00  0.00000000000E+00  0.45593999997E+02  0.45594000000E+02  0.51100000000E-03 0. -1.
         11   -1    0    0    0    0 -0.00000000000E+00 -0.00000000000E+00 -0.45593999997E+02  0.45594000000E+02  0.51100000000E-03 0.  1.
    9900012    2    1    2    0    0 -0.15857645378E+02  0.23073386899E+01 -0.40334037081E+02  0.47787271020E+02  0.19999999890E+02 0.  0.
         12    1    1    2    0    0  0.15857645378E+02 -0.23073386899E+01  0.40334037081E+02  0.43400728980E+02  0.00000000000E+00 0. -1.
         11    1    3    3    0    0  0.55881140552E+00  0.42053475812E+01 -0.31165630433E+01  0.52640463456E+01  0.51100000000E-03 0. -1.
        -11    1    3    3    0    0 -0.94794426176E+01 -0.71197186421E+01 -0.22627197384E+02  0.25544868126E+02  0.51100000000E-03 0.  1.
        -12    1    3    3    0    0 -0.69370141659E+01  0.52217097508E+01 -0.14590276653E+02  0.16978356548E+02  0.00000000000E+00 0.  1.
</event>
<event>
 7    1  0.9175399E-010  0.4778727E+02  0.7816164E-02  0.1312668E+00
        -11   -1    0    0    0    0  0.00000000000E+00  0.00000000000E+00  0.45593999997E+02  0.45594000000E+02  0.51100000000E-03 0. -1.
         11   -1    0    0    0    0 -0.00000000000E+00 -0.00000000000E+00 -0.45593999997E+02  0.45594000000E+02  0.51100000000E-03 0.  1.
    9900012    2    1    2    0    0 -0.11449701465E+02 -0.86879844289E+01  0.40951759494E+02  0.47787270252E+02  0.19999996385E+02 0.  0.
        -12    1    1    2    0    0  0.11449701465E+02  0.86879844289E+01 -0.40951759494E+02  0.43400729748E+02  0.00000000000E+00 0.  1.
         11    1    3    3    0    0 -0.11911060089E+02 -0.12741623230E+02  0.34691306125E+02  0.38829229144E+02  0.51100000000E-03 0. -1.
        -11    1    3    3    0    0  0.10944160471E+01  0.40008845001E+01  0.69037330479E+01  0.80539650809E+01  0.51100000000E-03 0.  1.
         12    1    3    3    0    0 -0.63305742255E+00  0.52754300652E-01 -0.64327967937E+00  0.90407602688E+00  0.00000000000E+00 0. -1.
</event>
<event>
 7    1  0.9175399E-010  0.4778727E+02  0.7816164E-02  0.1312668E+00
        -11   -1    0    0    0    0  0.00000000000E+00  0.00000000000E+00  0.45593999997E+02  0.45594000000E+02  0.51100000000E-03 0. -1.
         11   -1    0    0    0    0 -0.00000000000E+00 -0.00000000000E+00 -0.45593999997E+02  0.45594000000E+02  0.51100000000E-03 0.  1.
    9900012    2    1    2    0    0  0.47247975663E+01 -0.15215281724E+01 -0.43115940954E+02  0.47787272767E+02  0.20000007854E+02 0.  0.
         12    1    1    2    0    0 -0.47247975663E+01  0.15215281724E+01  0.43115940954E+02  0.43400727233E+02  0.00000000000E+00 0. -1.
         11    1    3    3    0    0  0.64493170885E+01  0.43829825608E+01 -0.11536014507E+02  0.13924218398E+02  0.51100000000E-03 0. -1.
        -11    1    3    3    0    0 -0.45970401287E+01 -0.62693362132E+01 -0.13716025498E+02  0.15765998548E+02  0.51100000000E-03 0.  1.
        -12    1    3    3    0    0  0.28725206065E+01  0.36482547998E+00 -0.17863900949E+02  0.18097055821E+02  0.00000000000E+00 0.  1.
</event>
<event>
 7    1  0.9175399E-010  0.4778727E+02  0.7816164E-02  0.1312668E+00
        -11   -1    0    0    0    0  0.00000000000E+00  0.00000000000E+00  0.45593999997E+02  0.45594000000E+02  0.51100000000E-03 0. -1.
         11   -1    0    0    0    0 -0.00000000000E+00 -0.00000000000E+00 -0.45593999997E+02  0.45594000000E+02  0.51100000000E-03 0.  1.
    9900012    2    1    2    0    0 -0.43697200785E+01  0.24378264734E+02  0.35640275204E+02  0.47787268881E+02  0.19999990137E+02 0.  0.
        -12    1    1    2    0    0  0.43697200785E+01 -0.24378264734E+02 -0.35640275204E+02  0.43400731119E+02  0.00000000000E+00 0.  1.
         11    1    3    3    0    0 -0.72950037157E+01  0.17363497082E+02  0.11573417718E+02  0.22105476879E+02  0.51100000000E-03 0. -1.
        -11    1    3    3    0    0 -0.10370875134E+00  0.28609284264E+01  0.14893123119E+02  0.15165776718E+02  0.51100000000E-03 0.  1.
         12    1    3    3    0    0  0.30289923885E+01  0.41538392257E+01  0.91737343678E+01  0.10516015284E+02  0.00000000000E+00 0. -1.
</event>
<event>
 7    1  0.9175399E-010  0.4778727E+02  0.7816164E-02  0.1312668E+00
        -11   -1    0    0    0    0  0.00000000000E+00  0.00000000000E+00  0.45593999997E+02  0.45594000000E+02  0.51100000000E-03 0.  1.
         11   -1    0    0    0    0 -0.00000000000E+00 -0.00000000000E+00 -0.45593999997E+02  0.45594000000E+02  0.51100000000E-03 0. -1.
    9900012    2    1    2    0    0 -0.17253514860E+02  0.37748763915E+02  0.12687403804E+02  0.47787272271E+02  0.20000005593E+02 0.  0.
         12    1    1    2    0    0  0.17253514860E+02 -0.37748763915E+02 -0.12687403804E+02  0.43400727729E+02  0.00000000000E+00 0. -1.
         11    1    3    3    0    0 -0.55878704640E+01  0.18783337120E+02 -0.33182989686E+01  0.19875843579E+02  0.51100000000E-03 0. -1.
        -11    1    3    3    0    0 -0.12045887997E+02  0.18416678633E+02  0.14759158175E+02  0.26497362506E+02  0.51100000000E-03 0.  1.
         12    1    3    3    0    0  0.38024360148E+00  0.54874816209E+00  0.12465445981E+01  0.14140661855E+01  0.00000000000E+00 0. -1.
</event>
<event>
 7    1  0.9175399E-010  0.4778727E+02  0.7816164E-02  0.1312668E+00
        -11   -1    0    0    0    0  0.00000000000E+00  0.00000000000E+00  0.45593999997E+02  0.45594000000E+02  0.51100000000E-03 0. -1.
         11   -1    0    0    0    0 -0.00000000000E+00 -0.00000000000E+00 -0.45593999997E+02  0.45594000000E+02  0.51100000000E-03 0.  1.
    9900012    2    1    2    0    0 -0.12160226153E+02 -0.40359734345E+02 -0.10336540279E+02  0.47787270497E+02  0.19999997503E+02 0.  0.
         12    1    1    2    0    0  0.12160226153E+02  0.40359734345E+02  0.10336540279E+02  0.43400729503E+02  0.00000000000E+00 0. -1.
         11    1    3    3    0    0  0.31806911545E+01 -0.11967832780E+02 -0.63937300738E+01  0.13936484571E+02  0.51100000000E-03 0. -1.
        -11    1    3    3    0    0 -0.10231213648E+02 -0.95955307144E+01 -0.27242107196E+00  0.14029474541E+02  0.51100000000E-03 0.  1.
        -12    1    3    3    0    0 -0.51097036601E+01 -0.18796370850E+02 -0.36703891331E+01  0.19821311385E+02  0.00000000000E+00 0.  1.
</event>
<event>
 7    1  0.9175399E-010  0.4778727E+02  0.7816164E-02  0.1312668E+00
        -11   -1    0    0    0    0  0.00000000000E+00  0.00000000000E+00  0.45593999997E+02  0.45594000000E+02  0.51100000000E-03 0. -1.
         11   -1    0    0    0    0 -0.00000000000E+00 -0.00000000000E+00 -0.45593999997E+02  0.45594000000E+02  0.51100000000E-03 0.  1.
    9900012    2    1    2    0    0 -0.59345724162E+01 -0.13706850973E+01  0.42971215723E+02  0.47787270650E+02  0.19999998200E+02 0.  0.
        -12    1    1    2    0    0  0.59345724162E+01  0.13706850973E+01 -0.42971215723E+02  0.43400729350E+02  0.00000000000E+00 0.  1.
         11    1    3    3    0    0 -0.64937127151E+01 -0.79736786013E+01  0.17975708405E+02  0.20709272034E+02  0.51100000000E-03 0. -1.
        -11    1    3    3    0    0  0.27410400090E+01  0.53900664454E+01  0.87162392119E+01  0.10608437344E+02  0.51100000000E-03 0.  1.
        -12    1    3    3    0    0 -0.21818997101E+01  0.12129270586E+01  0.16279268107E+02  0.16469561272E+02  0.00000000000E+00 0.  1.
</event>
<event>
 7    1  0.9175399E-010  0.4778727E+02  0.7816164E-02  0.1312668E+00
        -11   -1    0    0    0    0  0.00000000000E+00  0.00000000000E+00  0.45593999997E+02  0.45594000000E+02  0.51100000000E-03 0. -1.
         11   -1    0    0    0    0 -0.00000000000E+00 -0.00000000000E+00 -0.45593999997E+02  0.45594000000E+02  0.51100000000E-03 0.  1.
    9900012    2    1    2    0    0  0.12883781746E+02 -0.18291008312E+02  0.37189655399E+02  0.47787270906E+02  0.19999999370E+02 0.  0.
        -12    1    1    2    0    0 -0.12883781746E+02  0.18291008312E+02 -0.37189655399E+02  0.43400729094E+02  0.00000000000E+00 0.  1.
         11    1    3    3    0    0  0.64891508911E+00 -0.15327026693E+02  0.16205475924E+02  0.22314934197E+02  0.51100000000E-03 0. -1.
        -11    1    3    3    0    0  0.38494994331E+00  0.16690421703E+01  0.26721219994E+01  0.31739761288E+01  0.51100000000E-03 0.  1.
         12    1    3    3    0    0  0.11849916714E+02 -0.46330237892E+01  0.18312057476E+02  0.22298360580E+02  0.00000000000E+00 0. -1.
</event>
<event>
 7    1  0.1174241E-009  0.4778727E+02  0.7816164E-02  0.1312668E+00
        -11   -1    0    0    0    0  0.00000000000E+00  0.00000000000E+00  0.45593999997E+02  0.45594000000E+02  0.51100000000E-03 0. -1.
         11   -1    0    0    0    0 -0.00000000000E+00 -0.00000000000E+00 -0.45593999997E+02  0.45594000000E+02  0.51100000000E-03 0.  1.
    9900012    2    1    2    0    0 -0.51644247174E+01 -0.82178279381E+01 -0.42301527088E+02  0.47787272210E+02  0.20000005315E+02 0.  0.
         12    1    1    2    0    0  0.51644247174E+01  0.82178279381E+01  0.42301527088E+02  0.43400727790E+02  0.00000000000E+00 0. -1.
         11    1    3    3    0    0  0.21988709091E+01 -0.50568789445E-01  0.72733253821E+00  0.23165930501E+01  0.51100000000E-03 0. -1.
        -11    1    3    3    0    0 -0.75109540967E+01 -0.18743116388E+01 -0.30260749996E+02  0.31235243974E+02  0.51100000000E-03 0.  1.
         12    1    3    3    0    0  0.14765847027E+00 -0.62929475099E+01 -0.12768109631E+02  0.14235435186E+02  0.00000000000E+00 0. -1.
</event>
<event>
 7    1  0.9175399E-010  0.4778727E+02  0.7816164E-02  0.1312668E+00
        -11   -1    0    0    0    0  0.00000000000E+00  0.00000000000E+00  0.45593999997E+02  0.45594000000E+02  0.51100000000E-03 0. -1.
         11   -1    0    0    0    0 -0.00000000000E+00 -0.00000000000E+00 -0.45593999997E+02  0.45594000000E+02  0.51100000000E-03 0.  1.
    9900012    2    1    2    0    0  0.29521411587E+02  0.30815095960E+01  0.31664074431E+02  0.47787273589E+02  0.20000011601E+02 0.  0.
        -12    1    1    2    0    0 -0.29521411587E+02 -0.30815095960E+01 -0.31664074431E+02  0.43400726411E+02  0.00000000000E+00 0.  1.
         11    1    3    3    0    0  0.26132033600E+02  0.90277349169E+00  0.20765847234E+02  0.33390396698E+02  0.51100000000E-03 0. -1.
        -11    1    3    3    0    0  0.45340004100E+00  0.71759565200E+00  0.11079914838E+02  0.11112381752E+02  0.51100000000E-03 0.  1.
         12    1    3    3    0    0  0.29359779452E+01  0.14611404523E+01 -0.18168764147E+00  0.32844951385E+01  0.00000000000E+00 0. -1.
</event>
<event>
 7    1  0.9175399E-010  0.4778727E+02  0.7816164E-02  0.1312668E+00
        -11   -1    0    0    0    0  0.00000000000E+00  0.00000000000E+00  0.45593999997E+02  0.45594000000E+02  0.51100000000E-03 0. -1.
         11   -1    0    0    0    0 -0.00000000000E+00 -0.00000000000E+00 -0.45593999997E+02  0.45594000000E+02  0.51100000000E-03 0.  1.
    9900012    2    1    2    0    0  0.14861710230E+02 -0.23795711966E+00  0.40776171513E+02  0.47787271690E+02  0.20000002945E+02 0.  0.
        -12    1    1    2    0    0 -0.14861710230E+02  0.23795711966E+00 -0.40776171513E+02  0.43400728310E+02  0.00000000000E+00 0.  1.
         11    1    3    3    0    0  0.10970432856E+02  0.12095902890E+00  0.37599004369E+02  0.39166952369E+02  0.51100000000E-03 0. -1.
        -11    1    3    3    0    0 -0.10962624905E+01 -0.20605676561E+01 -0.22942511214E+00  0.23452860501E+01  0.51100000000E-03 0.  1.
         12    1    3    3    0    0  0.49875398641E+01  0.17016515076E+01  0.34065922565E+01  0.62750332710E+01  0.00000000000E+00 0. -1.
</event>
<event>
 7    1  0.9175399E-010  0.4778727E+02  0.7816164E-02  0.1312668E+00
        -11   -1    0    0    0    0  0.00000000000E+00  0.00000000000E+00  0.45593999997E+02  0.45594000000E+02  0.51100000000E-03 0. -1.
         11   -1    0    0    0    0 -0.00000000000E+00 -0.00000000000E+00 -0.45593999997E+02  0.45594000000E+02  0.51100000000E-03 0.  1.
    9900012    2    1    2    0    0 -0.26278398350E+02  0.25231860651E+02 -0.23588600090E+02  0.47787273440E+02  0.20000010921E+02 0.  0.
         12    1    1    2    0    0  0.26278398350E+02 -0.25231860651E+02  0.23588600090E+02  0.43400726560E+02  0.00000000000E+00 0. -1.
         11    1    3    3    0    0 -0.16084790969E+02  0.71833526397E+01 -0.35932428187E+01  0.17978666521E+02  0.51100000000E-03 0. -1.
        -11    1    3    3    0    0 -0.38246841686E+01  0.15080986983E+01 -0.20809250546E+01  0.46079084211E+01  0.51100000000E-03 0.  1.
         12    1    3    3    0    0 -0.63689232125E+01  0.16540409314E+02 -0.17914432217E+02  0.25200698498E+02  0.00000000000E+00 0. -1.
</event>
<event>
 7    1  0.9175399E-010  0.4778727E+02  0.7816164E-02  0.1312668E+00
        -11   -1    0    0    0    0  0.00000000000E+00  0.00000000000E+00  0.45593999997E+02  0.45594000000E+02  0.51100000000E-03 0. -1.
         11   -1    0    0    0    0 -0.00000000000E+00 -0.00000000000E+00 -0.45593999997E+02  0.45594000000E+02  0.51100000000E-03 0.  1.
    9900012    2    1    2    0    0  0.35607051433E+02 -0.51264465092E+01  0.24279222375E+02  0.47787271842E+02  0.20000003635E+02 0.  0.
        -12    1    1    2    0    0 -0.35607051433E+02  0.51264465092E+01 -0.24279222375E+02  0.43400728158E+02  0.00000000000E+00 0.  1.
         11    1    3    3    0    0  0.13409665746E+02 -0.80780630364E+01  0.15606202335E+02  0.22104926813E+02  0.51100000000E-03 0. -1.
        -11    1    3    3    0    0  0.85009759931E+01  0.21233960058E+00 -0.11856599190E+01  0.85858878776E+01  0.51100000000E-03 0.  1.
         12    1    3    3    0    0  0.13696409694E+02  0.27392769267E+01  0.98586799589E+01  0.17096457151E+02  0.00000000000E+00 0. -1.
</event>
<event>
 7    1  0.9175399E-010  0.4778727E+02  0.7816164E-02  0.1312668E+00
        -11   -1    0    0    0    0  0.00000000000E+00  0.00000000000E+00  0.45593999997E+02  0.45594000000E+02  0.51100000000E-03 0. -1.
         11   -1    0    0    0    0 -0.00000000000E+00 -0.00000000000E+00 -0.45593999997E+02  0.45594000000E+02  0.51100000000E-03 0.  1.
    9900012    2    1    2    0    0 -0.76590255980E+01 -0.21293184050E+02  0.37034618876E+02  0.47787270105E+02  0.19999995716E+02 0.  0.
        -12    1    1    2    0    0  0.76590255980E+01  0.21293184050E+02 -0.37034618876E+02  0.43400729895E+02  0.00000000000E+00 0.  1.
         11    1    3    3    0    0  0.53307576307E+01 -0.59125366688E+01  0.97833073086E+01  0.12613015854E+02  0.51100000000E-03 0. -1.
        -11    1    3    3    0    0 -0.86410651762E+00  0.95162929756E+00  0.43854859050E+01  0.45699852601E+01  0.51100000000E-03 0.  1.
         12    1    3    3    0    0 -0.12125676711E+02 -0.16332276679E+02  0.22865825663E+02  0.30604268991E+02  0.00000000000E+00 0. -1.
</event>
<event>
 7    1  0.9175399E-010  0.4778727E+02  0.7816164E-02  0.1312668E+00
        -11   -1    0    0    0    0  0.00000000000E+00  0.00000000000E+00  0.45593999997E+02  0.45594000000E+02  0.51100000000E-03 0. -1.
         11   -1    0    0    0    0 -0.00000000000E+00 -0.00000000000E+00 -0.45593999997E+02  0.45594000000E+02  0.51100000000E-03 0.  1.
    9900012    2    1    2    0    0  0.17281683864E+02  0.10093913879E+02 -0.38510770577E+02  0.47787272529E+02  0.20000006768E+02 0.  0.
         12    1    1    2    0    0 -0.17281683864E+02 -0.10093913879E+02  0.38510770577E+02  0.43400727471E+02  0.00000000000E+00 0. -1.
         11    1    3    3    0    0  0.11569566936E+02  0.28761180173E+01 -0.68281826397E+01  0.13738668507E+02  0.51100000000E-03 0. -1.
        -11    1    3    3    0    0  0.67341081349E+01  0.29697354555E+01 -0.25028965208E+02  0.26088630487E+02  0.51100000000E-03 0.  1.
        -12    1    3    3    0    0 -0.10219912067E+01  0.42480604058E+01 -0.66536227297E+01  0.79599735343E+01  0.00000000000E+00 0.  1.
</event>
<event>
 7    1  0.9175399E-010  0.4778727E+02  0.7816164E-02  0.1312668E+00
        -11   -1    0    0    0    0  0.00000000000E+00  0.00000000000E+00  0.45593999997E+02  0.45594000000E+02  0.51100000000E-03 0.  1.
         11   -1    0    0    0    0 -0.00000000000E+00 -0.00000000000E+00 -0.45593999997E+02  0.45594000000E+02  0.51100000000E-03 0. -1.
    9900012    2    1    2    0    0 -0.42753339394E+02  0.13656507068E+00  0.74670195867E+01  0.47787273499E+02  0.20000011191E+02 0.  0.
        -12    1    1    2    0    0  0.42753339394E+02 -0.13656507068E+00 -0.74670195867E+01  0.43400726501E+02  0.00000000000E+00 0.  1.
         11    1    3    3    0    0 -0.16079128186E+02 -0.46285947757E+01  0.89099396833E+01  0.18956510181E+02  0.51100000000E-03 0. -1.
        -11    1    3    3    0    0 -0.95579120630E+01  0.84819921762E+00 -0.51423035341E+01  0.10886524276E+02  0.51100000000E-03 0.  1.
         12    1    3    3    0    0 -0.17116299144E+02  0.39169606288E+01  0.36993834375E+01  0.17944239041E+02  0.00000000000E+00 0. -1.
</event>
<event>
 7    1  0.9175399E-010  0.4778727E+02  0.7816164E-02  0.1312668E+00
        -11   -1    0    0    0    0  0.00000000000E+00  0.00000000000E+00  0.45593999997E+02  0.45594000000E+02  0.51100000000E-03 0. -1.
         11   -1    0    0    0    0 -0.00000000000E+00 -0.00000000000E+00 -0.45593999997E+02  0.45594000000E+02  0.51100000000E-03 0.  1.
    9900012    2    1    2    0    0 -0.88617938535E+01 -0.82925849539E+01  0.41669231541E+02  0.47787271749E+02  0.20000003213E+02 0.  0.
        -12    1    1    2    0    0  0.88617938535E+01  0.82925849539E+01 -0.41669231541E+02  0.43400728251E+02  0.00000000000E+00 0.  1.
         11    1    3    3    0    0 -0.67191574730E+01 -0.34068414548E+01  0.37252176591E+02  0.38006292991E+02  0.51100000000E-03 0. -1.
        -11    1    3    3    0    0  0.33755877725E+00 -0.57604995707E+01  0.42099557920E+01  0.71429006198E+01  0.51100000000E-03 0.  1.
        -12    1    3    3    0    0 -0.24801951578E+01  0.87475607155E+00  0.20709915724E+00  0.26380781388E+01  0.00000000000E+00 0.  1.
</event>
<event>
 7    1  0.9175399E-010  0.4778727E+02  0.7816164E-02  0.1312668E+00
        -11   -1    0    0    0    0  0.00000000000E+00  0.00000000000E+00  0.45593999997E+02  0.45594000000E+02  0.51100000000E-03 0. -1.
         11   -1    0    0    0    0 -0.00000000000E+00 -0.00000000000E+00 -0.45593999997E+02  0.45594000000E+02  0.51100000000E-03 0.  1.
    9900012    2    1    2    0    0 -0.52602880579E+01  0.20847185208E+02 -0.37700765200E+02  0.47787268921E+02  0.19999990319E+02 0.  0.
         12    1    1    2    0    0  0.52602880579E+01 -0.20847185208E+02  0.37700765200E+02  0.43400731079E+02  0.00000000000E+00 0. -1.
         11    1    3    3    0    0 -0.21325510510E+01  0.46276755378E+01  0.11487356644E+01  0.52232890745E+01  0.51100000000E-03 0. -1.
        -11    1    3    3    0    0 -0.80853044502E+00  0.13367403049E+02 -0.33457538233E+02  0.36038147159E+02  0.51100000000E-03 0.  1.
         12    1    3    3    0    0 -0.23192065619E+01  0.28521066212E+01 -0.53919626312E+01  0.65258326880E+01  0.00000000000E+00 0. -1.
</event>
<event>
 7    1  0.9175399E-010  0.4778725E+02  0.7816164E-02  0.1312668E+00
        -11   -1    0    0    0    0  0.00000000000E+00  0.00000000000E+00  0.45593999997E+02  0.45594000000E+02  0.51100000000E-03 0. -1.
         11   -1    0    0    0    0 -0.00000000000E+00 -0.00000000000E+00 -0.45593999997E+02  0.45594000000E+02  0.51100000000E-03 0.  1.
    9900012    2    1    2    0    0 -0.17168580862E+02  0.24659791435E+02 -0.31317078975E+02  0.47787252104E+02  0.19999913641E+02 0.  0.
         12    1    1    2    0    0  0.17168580862E+02 -0.24659791435E+02  0.31317078975E+02  0.43400747896E+02  0.00000000000E+00 0. -1.
         11    1    3    3    0    0 -0.31135338614E+01 -0.21651451963E+01 -0.15165636932E+01  0.40843497064E+01  0.51100000000E-03 0. -1.
        -11    1    3    3    0    0 -0.10787387992E+02  0.21006687050E+02 -0.28308863971E+02  0.36865165402E+02  0.51100000000E-03 0.  1.
         12    1    3    3    0    0 -0.32676590084E+01  0.58182495813E+01 -0.14916513108E+01  0.68377369954E+01  0.00000000000E+00 0. -1.
</event>
<event>
 7    1  0.9175399E-010  0.4778727E+02  0.7816164E-02  0.1312668E+00
        -11   -1    0    0    0    0  0.00000000000E+00  0.00000000000E+00  0.45593999997E+02  0.45594000000E+02  0.51100000000E-03 0. -1.
         11   -1    0    0    0    0 -0.00000000000E+00 -0.00000000000E+00 -0.45593999997E+02  0.45594000000E+02  0.51100000000E-03 0.  1.
    9900012    2    1    2    0    0 -0.11036691345E+02 -0.29329531087E+02  0.30026543761E+02  0.47787270976E+02  0.19999999686E+02 0.  0.
        -12    1    1    2    0    0  0.11036691345E+02  0.29329531087E+02 -0.30026543761E+02  0.43400729024E+02  0.00000000000E+00 0.  1.
         11    1    3    3    0    0 -0.80456872153E+01 -0.13536593913E+02  0.64783074563E+01  0.17027651784E+02  0.51100000000E-03 0. -1.
        -11    1    3    3    0    0 -0.80781797042E+00 -0.72913461636E+01  0.19980761879E+02  0.21284904140E+02  0.51100000000E-03 0.  1.
        -12    1    3    3    0    0 -0.21831861590E+01 -0.85015910102E+01  0.35674744262E+01  0.94747150507E+01  0.00000000000E+00 0.  1.
</event>
<event>
 7    1  0.9175399E-010  0.4778730E+02  0.7816164E-02  0.1312668E+00
        -11   -1    0    0    0    0  0.00000000000E+00  0.00000000000E+00  0.45593999997E+02  0.45594000000E+02  0.51100000000E-03 0. -1.
         11   -1    0    0    0    0 -0.00000000000E+00 -0.00000000000E+00 -0.45593999997E+02  0.45594000000E+02  0.51100000000E-03 0.  1.
    9900012    2    1    2    0    0  0.27978274222E+01  0.12734153184E+02  0.41396062016E+02  0.47787303622E+02  0.20000148536E+02 0.  0.
        -12    1    1    2    0    0 -0.27978274222E+01 -0.12734153184E+02 -0.41396062016E+02  0.43400696378E+02  0.00000000000E+00 0.  1.
         11    1    3    3    0    0 -0.15442379336E+01  0.98680639798E+00  0.85842009053E+01  0.87776399508E+01  0.51100000000E-03 0. -1.
        -11    1    3    3    0    0 -0.50398244255E+01  0.54081978345E+01  0.22542149440E+02  0.23723341580E+02  0.51100000000E-03 0.  1.
        -12    1    3    3    0    0  0.93818897812E+01  0.63391489518E+01  0.10269711671E+02  0.15286322092E+02  0.00000000000E+00 0.  1.
</event>
<event>
 7    1  0.9175399E-010  0.4778727E+02  0.7816164E-02  0.1312668E+00
        -11   -1    0    0    0    0  0.00000000000E+00  0.00000000000E+00  0.45593999997E+02  0.45594000000E+02  0.51100000000E-03 0. -1.
         11   -1    0    0    0    0 -0.00000000000E+00 -0.00000000000E+00 -0.45593999997E+02  0.45594000000E+02  0.51100000000E-03 0.  1.
    9900012    2    1    2    0    0 -0.10231759557E+02 -0.33426978530E+01  0.42044745687E+02  0.47787272213E+02  0.20000005328E+02 0.  0.
        -12    1    1    2    0    0  0.10231759557E+02  0.33426978530E+01 -0.42044745687E+02  0.43400727787E+02  0.00000000000E+00 0.  1.
         11    1    3    3    0    0  0.47158883432E+01 -0.24017892411E+01  0.60420447047E+01  0.80320918134E+01  0.51100000000E-03 0.  1.
        -11    1    3    3    0    0  0.83385554561E+00 -0.64158206307E+00  0.28120987678E+01  0.30024727069E+01  0.51100000000E-03 0. -1.
         12    1    3    3    0    0 -0.15781503446E+02 -0.29932654887E+00  0.33190602214E+02  0.36752707693E+02  0.00000000000E+00 0. -1.
</event>
<event>
 7    1  0.9175399E-010  0.4778730E+02  0.7816164E-02  0.1312668E+00
        -11   -1    0    0    0    0  0.00000000000E+00  0.00000000000E+00  0.45593999997E+02  0.45594000000E+02  0.51100000000E-03 0.  1.
         11   -1    0    0    0    0 -0.00000000000E+00 -0.00000000000E+00 -0.45593999997E+02  0.45594000000E+02  0.51100000000E-03 0. -1.
    9900012    2    1    2    0    0  0.23897684052E+01  0.36109420773E+02 -0.23958699608E+02  0.47787302442E+02  0.20000143153E+02 0.  0.
         12    1    1    2    0    0 -0.23897684052E+01 -0.36109420773E+02  0.23958699608E+02  0.43400697558E+02  0.00000000000E+00 0. -1.
         11    1    3    3    0    0 -0.47082987527E+01  0.41469341676E+01 -0.59208472067E+01  0.86267938449E+01  0.51100000000E-03 0. -1.
        -11    1    3    3    0    0  0.85330276502E+01  0.32169191112E+02 -0.17584418757E+02  0.37641482449E+02  0.51100000000E-03 0.  1.
        -12    1    3    3    0    0 -0.14349604923E+01 -0.20670450660E+00 -0.45343364425E+00  0.15190261477E+01  0.00000000000E+00 0.  1.
</event>
<event>
 7    1  0.9175399E-010  0.4778727E+02  0.7816164E-02  0.1312668E+00
        -11   -1    0    0    0    0  0.00000000000E+00  0.00000000000E+00  0.45593999997E+02  0.45594000000E+02  0.51100000000E-03 0. -1.
         11   -1    0    0    0    0 -0.00000000000E+00 -0.00000000000E+00 -0.45593999997E+02  0.45594000000E+02  0.51100000000E-03 0.  1.
    9900012    2    1    2    0    0 -0.69397731128E+01  0.38343101499E+02 -0.19112020929E+02  0.47787271580E+02  0.20000002441E+02 0.  0.
         12    1    1    2    0    0  0.69397731128E+01 -0.38343101499E+02  0.19112020929E+02  0.43400728420E+02  0.00000000000E+00 0. -1.
         11    1    3    3    0    0 -0.79098158472E+01  0.62544319863E+01 -0.14803964591E+01  0.10191892864E+02  0.51100000000E-03 0. -1.
        -11    1    3    3    0    0 -0.35280670411E+01  0.17572964652E+02 -0.10871301659E+02  0.20962861058E+02  0.51100000000E-03 0.  1.
         12    1    3    3    0    0  0.44981097756E+01  0.14515704860E+02 -0.67603228109E+01  0.16632517658E+02  0.00000000000E+00 0. -1.
</event>
<event>
 7    1  0.9175399E-010  0.4778728E+02  0.7816164E-02  0.1312668E+00
        -11   -1    0    0    0    0  0.00000000000E+00  0.00000000000E+00  0.45593999997E+02  0.45594000000E+02  0.51100000000E-03 0. -1.
         11   -1    0    0    0    0 -0.00000000000E+00 -0.00000000000E+00 -0.45593999997E+02  0.45594000000E+02  0.51100000000E-03 0.  1.
    9900012    2    1    2    0    0  0.70137755339E+01 -0.53720736773E+01 -0.42492005897E+02  0.47787276642E+02  0.20000025521E+02 0.  0.
         12    1    1    2    0    0 -0.70137755339E+01  0.53720736773E+01  0.42492005897E+02  0.43400723358E+02  0.00000000000E+00 0. -1.
         11    1    3    3    0    0  0.32181966072E+01 -0.11443949277E+02 -0.18987086362E+02  0.22401567205E+02  0.51100000000E-03 0. -1.
        -11    1    3    3    0    0  0.95983305735E+00  0.53299021831E+01 -0.20437851429E+02  0.21143200044E+02  0.51100000000E-03 0.  1.
        -12    1    3    3    0    0  0.28357458694E+01  0.74197341610E+00 -0.30670681057E+01  0.42425093931E+01  0.00000000000E+00 0.  1.
</event>
<event>
 7    1  0.9175399E-010  0.4778730E+02  0.7816164E-02  0.1312668E+00
        -11   -1    0    0    0    0  0.00000000000E+00  0.00000000000E+00  0.45593999997E+02  0.45594000000E+02  0.51100000000E-03 0. -1.
         11   -1    0    0    0    0 -0.00000000000E+00 -0.00000000000E+00 -0.45593999997E+02  0.45594000000E+02  0.51100000000E-03 0.  1.
    9900012    2    1    2    0    0  0.85085228571E+01  0.30973212308E+02 -0.29187079491E+02  0.47787303564E+02  0.20000148271E+02 0.  0.
         12    1    1    2    0    0 -0.85085228571E+01 -0.30973212308E+02  0.29187079491E+02  0.43400696436E+02  0.00000000000E+00 0. -1.
         11    1    3    3    0    0  0.45095429467E+01  0.17173594133E+02 -0.25105270334E+02  0.30749681491E+02  0.51100000000E-03 0. -1.
        -11    1    3    3    0    0  0.38071566813E+01  0.14403479561E+02 -0.51773013923E+01  0.15772099271E+02  0.51100000000E-03 0.  1.
         12    1    3    3    0    0  0.19182322911E+00 -0.60386138532E+00  0.10954922354E+01  0.12655228017E+01  0.00000000000E+00 0. -1.
</event>
<event>
 7    1  0.9175399E-010  0.4778728E+02  0.7816164E-02  0.1312668E+00
        -11   -1    0    0    0    0  0.00000000000E+00  0.00000000000E+00  0.45593999997E+02  0.45594000000E+02  0.51100000000E-03 0.  1.
         11   -1    0    0    0    0 -0.00000000000E+00 -0.00000000000E+00 -0.45593999997E+02  0.45594000000E+02  0.51100000000E-03 0. -1.
    9900012    2    1    2    0    0  0.29281702479E+02  0.25684013259E+02 -0.19145128279E+02  0.47787279107E+02  0.20000036760E+02 0.  0.
        -12    1    1    2    0    0 -0.29281702479E+02 -0.25684013259E+02  0.19145128279E+02  0.43400720893E+02  0.00000000000E+00 0.  1.
         11    1    3    3    0    0  0.17701198154E+02  0.94873694746E+01 -0.96622919450E+01  0.22286823047E+02  0.51100000000E-03 0. -1.
        -11    1    3    3    0    0  0.25584883361E+00  0.71603340139E+01  0.14998308230E+01  0.73202004463E+01  0.51100000000E-03 0.  1.
        -12    1    3    3    0    0  0.11324655492E+02  0.90363097709E+01 -0.10982667157E+02  0.18180255614E+02  0.00000000000E+00 0.  1.
</event>
<event>
 7    1  0.9175399E-010  0.4778727E+02  0.7816164E-02  0.1312668E+00
        -11   -1    0    0    0    0  0.00000000000E+00  0.00000000000E+00  0.45593999997E+02  0.45594000000E+02  0.51100000000E-03 0. -1.
         11   -1    0    0    0    0 -0.00000000000E+00 -0.00000000000E+00 -0.45593999997E+02  0.45594000000E+02  0.51100000000E-03 0.  1.
    9900012    2    1    2    0    0 -0.16493074134E+02 -0.20414313755E+02  0.34566715169E+02  0.47787268462E+02  0.19999988225E+02 0.  0.
        -12    1    1    2    0    0  0.16493074134E+02  0.20414313755E+02 -0.34566715169E+02  0.43400731538E+02  0.00000000000E+00 0.  1.
         11    1    3    3    0    0 -0.48228067968E+01 -0.68584232121E+01  0.19663813622E+02  0.21376692933E+02  0.51100000000E-03 0. -1.
        -11    1    3    3    0    0 -0.91427368193E+01 -0.82298268388E+01  0.23241522507E+01  0.12518840613E+02  0.51100000000E-03 0.  1.
        -12    1    3    3    0    0 -0.25275305180E+01 -0.53260637040E+01  0.12578749297E+02  0.13891734916E+02  0.00000000000E+00 0.  1.
</event>
<event>
 7    1  0.1021692E-009  0.4778727E+02  0.7816164E-02  0.1312668E+00
        -11   -1    0    0    0    0  0.00000000000E+00  0.00000000000E+00  0.45593999997E+02  0.45594000000E+02  0.51100000000E-03 0. -1.
         11   -1    0    0    0    0 -0.00000000000E+00 -0.00000000000E+00 -0.45593999997E+02  0.45594000000E+02  0.51100000000E-03 0.  1.
    9900012    2    1    2    0    0  0.16350792752E+02 -0.40157170863E+01 -0.40001860943E+02  0.47787270902E+02  0.19999999349E+02 0.  0.
         12    1    1    2    0    0 -0.16350792752E+02  0.40157170863E+01  0.40001860943E+02  0.43400729098E+02  0.00000000000E+00 0. -1.
         11    1    3    3    0    0  0.31395541463E+01  0.20716276241E+01  0.12091260231E+01  0.39510033221E+01  0.51100000000E-03 0. -1.
        -11    1    3    3    0    0  0.93617717280E+01 -0.44744679291E+01 -0.24393479471E+02  0.26508592458E+02  0.51100000000E-03 0.  1.
         12    1    3    3    0    0  0.38494668776E+01 -0.16128767813E+01 -0.16817507496E+02  0.17327675122E+02  0.00000000000E+00 0. -1.
</event>
<event>
 7    1  0.9175399E-010  0.4778728E+02  0.7816164E-02  0.1312668E+00
        -11   -1    0    0    0    0  0.00000000000E+00  0.00000000000E+00  0.45593999997E+02  0.45594000000E+02  0.51100000000E-03 0. -1.
         11   -1    0    0    0    0 -0.00000000000E+00 -0.00000000000E+00 -0.45593999997E+02  0.45594000000E+02  0.51100000000E-03 0.  1.
    9900012    2    1    2    0    0  0.92363442994E+01 -0.18218679263E+02  0.38293500290E+02  0.47787280022E+02  0.20000040934E+02 0.  0.
        -12    1    1    2    0    0 -0.92363442994E+01  0.18218679263E+02 -0.38293500290E+02  0.43400719978E+02  0.00000000000E+00 0.  1.
         11    1    3    3    0    0  0.77295640860E+01  0.26505847914E+00  0.17101632700E+02  0.18769183739E+02  0.51100000000E-03 0. -1.
        -11    1    3    3    0    0  0.17689415948E+01 -0.19080390478E+02  0.20327857868E+02  0.27935859767E+02  0.51100000000E-03 0.  1.
        -12    1    3    3    0    0 -0.26216138139E+00  0.59665273619E+00  0.86400972256E+00  0.10822365167E+01  0.00000000000E+00 0.  1.
</event>
<event>
 7    1  0.9175399E-010  0.4778727E+02  0.7816164E-02  0.1312668E+00
        -11   -1    0    0    0    0  0.00000000000E+00  0.00000000000E+00  0.45593999997E+02  0.45594000000E+02  0.51100000000E-03 0. -1.
         11   -1    0    0    0    0 -0.00000000000E+00 -0.00000000000E+00 -0.45593999997E+02  0.45594000000E+02  0.51100000000E-03 0.  1.
    9900012    2    1    2    0    0  0.29294758546E+02  0.19733519298E+02  0.25219614019E+02  0.47787267364E+02  0.19999983218E+02 0.  0.
        -12    1    1    2    0    0 -0.29294758546E+02 -0.19733519298E+02 -0.25219614019E+02  0.43400732636E+02  0.00000000000E+00 0.  1.
         11    1    3    3    0    0  0.44780862133E+01  0.62087012898E+01  0.10546488947E+02  0.13031870826E+02  0.51100000000E-03 0. -1.
        -11    1    3    3    0    0  0.22420804657E+02  0.16348059297E+02  0.12260777091E+02  0.30336087081E+02  0.51100000000E-03 0.  1.
        -12    1    3    3    0    0  0.23958676754E+01 -0.28232412894E+01  0.24123479806E+01  0.44193094569E+01  0.00000000000E+00 0.  1.
</event>
<event>
 7    1  0.9175399E-010  0.4778727E+02  0.7816164E-02  0.1312668E+00
        -11   -1    0    0    0    0  0.00000000000E+00  0.00000000000E+00  0.45593999997E+02  0.45594000000E+02  0.51100000000E-03 0. -1.
         11   -1    0    0    0    0 -0.00000000000E+00 -0.00000000000E+00 -0.45593999997E+02  0.45594000000E+02  0.51100000000E-03 0.  1.
    9900012    2    1    2    0    0 -0.14622646931E+02  0.26022931962E+02 -0.31505691921E+02  0.47787269423E+02  0.19999992608E+02 0.  0.
         12    1    1    2    0    0  0.14622646931E+02 -0.26022931962E+02  0.31505691921E+02  0.43400730577E+02  0.00000000000E+00 0. -1.
         11    1    3    3    0    0 -0.13714071924E+02  0.21587211774E+02 -0.19608422256E+02  0.32226909634E+02  0.51100000000E-03 0. -1.
        -11    1    3    3    0    0 -0.83857711104E+00  0.34359587374E+01  0.83450640680E-01  0.35377942686E+01  0.51100000000E-03 0.  1.
         12    1    3    3    0    0 -0.69997895533E-01  0.99976145116E+00 -0.11980720305E+02  0.12022565521E+02  0.00000000000E+00 0. -1.
</event>
<event>
 7    1  0.9175399E-010  0.4778729E+02  0.7816164E-02  0.1312668E+00
        -11   -1    0    0    0    0  0.00000000000E+00  0.00000000000E+00  0.45593999997E+02  0.45594000000E+02  0.51100000000E-03 0. -1.
         11   -1    0    0    0    0 -0.00000000000E+00 -0.00000000000E+00 -0.45593999997E+02  0.45594000000E+02  0.51100000000E-03 0.  1.
    9900012    2    1    2    0    0 -0.21067821474E+02  0.20739965769E+02  0.31774553229E+02  0.47787291312E+02  0.20000092407E+02 0.  0.
        -12    1    1    2    0    0  0.21067821474E+02 -0.20739965769E+02 -0.31774553229E+02  0.43400708688E+02  0.00000000000E+00 0.  1.
         11    1    3    3    0    0 -0.11872571638E+02 -0.24741132426E+00  0.90342793834E+01  0.14921037963E+02  0.51100000000E-03 0. -1.
        -11    1    3    3    0    0 -0.41827139782E+01  0.13371292937E+02  0.17252082031E+02  0.22224331389E+02  0.51100000000E-03 0.  1.
        -12    1    3    3    0    0 -0.50125358583E+01  0.76160841564E+01  0.54881918138E+01  0.10641921960E+02  0.00000000000E+00 0.  1.
</event>
<event>
 7    1  0.9175399E-010  0.4778727E+02  0.7816164E-02  0.1312668E+00
        -11   -1    0    0    0    0  0.00000000000E+00  0.00000000000E+00  0.45593999997E+02  0.45594000000E+02  0.51100000000E-03 0. -1.
         11   -1    0    0    0    0 -0.00000000000E+00 -0.00000000000E+00 -0.45593999997E+02  0.45594000000E+02  0.51100000000E-03 0.  1.
    9900012    2    1    2    0    0 -0.20823621734E+02 -0.19586204620E+02 -0.32655483309E+02  0.47787271622E+02  0.20000002634E+02 0.  0.
         12    1    1    2    0    0  0.20823621734E+02  0.19586204620E+02  0.32655483309E+02  0.43400728378E+02  0.00000000000E+00 0. -1.
         11    1    3    3    0    0 -0.96783429446E+01  0.24016588483E+01 -0.10241637499E+02  0.14294384432E+02  0.51100000000E-03 0. -1.
        -11    1    3    3    0    0 -0.99900263600E+01 -0.16655357904E+02 -0.17880499384E+02  0.26399125593E+02  0.51100000000E-03 0.  1.
         12    1    3    3    0    0 -0.11552524298E+01 -0.53325055649E+01 -0.45333464261E+01  0.70937615970E+01  0.00000000000E+00 0. -1.
</event>
<event>
 7    1  0.9175399E-010  0.4778727E+02  0.7816164E-02  0.1312668E+00
        -11   -1    0    0    0    0  0.00000000000E+00  0.00000000000E+00  0.45593999997E+02  0.45594000000E+02  0.51100000000E-03 0. -1.
         11   -1    0    0    0    0 -0.00000000000E+00 -0.00000000000E+00 -0.45593999997E+02  0.45594000000E+02  0.51100000000E-03 0.  1.
    9900012    2    1    2    0    0  0.29350508653E+02  0.86788722480E+00 -0.31959629430E+02  0.47787268442E+02  0.19999988136E+02 0.  0.
         12    1    1    2    0    0 -0.29350508653E+02 -0.86788722480E+00  0.31959629430E+02  0.43400731558E+02  0.00000000000E+00 0. -1.
         11    1    3    3    0    0 -0.10593313813E+01 -0.20347245836E+01 -0.27305755949E+01  0.35662768326E+01  0.51100000000E-03 0. -1.
        -11    1    3    3    0    0  0.31214617668E+02  0.43091406754E+01 -0.28298024146E+02  0.42352086375E+02  0.51100000000E-03 0.  1.
        -12    1    3    3    0    0 -0.80477763341E+00 -0.14065288670E+01 -0.93102968942E+00  0.18689052345E+01  0.00000000000E+00 0.  1.
</event>
<event>
 7    1  0.1123654E-009  0.4778726E+02  0.7816164E-02  0.1312668E+00
        -11   -1    0    0    0    0  0.00000000000E+00  0.00000000000E+00  0.45593999997E+02  0.45594000000E+02  0.51100000000E-03 0.  1.
         11   -1    0    0    0    0 -0.00000000000E+00 -0.00000000000E+00 -0.45593999997E+02  0.45594000000E+02  0.51100000000E-03 0. -1.
    9900012    2    1    2    0    0  0.29071793815E+02  0.69497318083E+00 -0.32217570838E+02  0.47787262056E+02  0.19999959020E+02 0.  0.
         12    1    1    2    0    0 -0.29071793815E+02 -0.69497318083E+00  0.32217570838E+02  0.43400737944E+02  0.00000000000E+00 0. -1.
         11    1    3    3    0    0  0.58946421588E+00 -0.41970341259E+01 -0.17598233702E+01  0.45890676690E+01  0.51100000000E-03 0. -1.
        -11    1    3    3    0    0  0.22565959689E+02  0.68475610168E+01 -0.19531895079E+02  0.30620361758E+02  0.51100000000E-03 0.  1.
         12    1    3    3    0    0  0.59163699105E+01 -0.19555537101E+01 -0.10925852389E+02  0.12577832629E+02  0.00000000000E+00 0. -1.
</event>
<event>
 7    1  0.9175399E-010  0.4778728E+02  0.7816164E-02  0.1312668E+00
        -11   -1    0    0    0    0  0.00000000000E+00  0.00000000000E+00  0.45593999997E+02  0.45594000000E+02  0.51100000000E-03 0.  1.
         11   -1    0    0    0    0 -0.00000000000E+00 -0.00000000000E+00 -0.45593999997E+02  0.45594000000E+02  0.51100000000E-03 0. -1.
    9900012    2    1    2    0    0 -0.35350966551E+02 -0.22027525182E+02 -0.12195088548E+02  0.47787275508E+02  0.20000020351E+02 0.  0.
        -12    1    1    2    0    0  0.35350966551E+02  0.22027525182E+02  0.12195088548E+02  0.43400724492E+02  0.00000000000E+00 0.  1.
         11    1    3    3    0    0 -0.21460764864E+01 -0.39286740261E+00  0.24748791142E+01  0.32992447579E+01  0.51100000000E-03 0.  1.
        -11    1    3    3    0    0 -0.27483951668E+02 -0.15533990944E+02 -0.16931991028E+02  0.35824081207E+02  0.51100000000E-03 0. -1.
        -12    1    3    3    0    0 -0.57209383970E+01 -0.61006668348E+01  0.22620233652E+01  0.86639495426E+01  0.00000000000E+00 0.  1.
</event>
<event>
 7    1  0.9175399E-010  0.4778727E+02  0.7816164E-02  0.1312668E+00
        -11   -1    0    0    0    0  0.00000000000E+00  0.00000000000E+00  0.45593999997E+02  0.45594000000E+02  0.51100000000E-03 0. -1.
         11   -1    0    0    0    0 -0.00000000000E+00 -0.00000000000E+00 -0.45593999997E+02  0.45594000000E+02  0.51100000000E-03 0.  1.
    9900012    2    1    2    0    0  0.18540958672E+02 -0.31509085859E+02 -0.23388743894E+02  0.47787274417E+02  0.20000015377E+02 0.  0.
         12    1    1    2    0    0 -0.18540958672E+02  0.31509085859E+02  0.23388743894E+02  0.43400725583E+02  0.00000000000E+00 0. -1.
         11    1    3    3    0    0  0.31068468415E+00 -0.38742819511E+01  0.18503415679E+01  0.43046892790E+01  0.51100000000E-03 0. -1.
        -11    1    3    3    0    0  0.13799967013E+02 -0.27319548228E+02 -0.23931917914E+02  0.38852715481E+02  0.51100000000E-03 0.  1.
        -12    1    3    3    0    0  0.44303069756E+01 -0.31525568019E+00 -0.13071675475E+01  0.46298696569E+01  0.00000000000E+00 0.  1.
</event>
<event>
 7    1  0.9175399E-010  0.4778727E+02  0.7816164E-02  0.1312668E+00
        -11   -1    0    0    0    0  0.00000000000E+00  0.00000000000E+00  0.45593999997E+02  0.45594000000E+02  0.51100000000E-03 0. -1.
         11   -1    0    0    0    0 -0.00000000000E+00 -0.00000000000E+00 -0.45593999997E+02  0.45594000000E+02  0.51100000000E-03 0.  1.
    9900012    2    1    2    0    0  0.11088833624E+02  0.22310422306E+02 -0.35537388956E+02  0.47787272029E+02  0.20000004491E+02 0.  0.
         12    1    1    2    0    0 -0.11088833624E+02 -0.22310422306E+02  0.35537388956E+02  0.43400727971E+02  0.00000000000E+00 0. -1.
         11    1    3    3    0    0  0.33821159157E+01  0.20142251177E+02 -0.24268724672E+02  0.31719394509E+02  0.51100000000E-03 0. -1.
        -11    1    3    3    0    0  0.14296937377E+01 -0.26523117190E+01 -0.55102644205E+01  0.62802703670E+01  0.51100000000E-03 0.  1.
         12    1    3    3    0    0  0.62770239703E+01  0.48204828473E+01 -0.57583998631E+01  0.97876071534E+01  0.00000000000E+00 0. -1.
</event>
<event>
 7    1  0.9175399E-010  0.4778727E+02  0.7816164E-02  0.1312668E+00
        -11   -1    0    0    0    0  0.00000000000E+00  0.00000000000E+00  0.45593999997E+02  0.45594000000E+02  0.51100000000E-03 0.  1.
         11   -1    0    0    0    0 -0.00000000000E+00 -0.00000000000E+00 -0.45593999997E+02  0.45594000000E+02  0.51100000000E-03 0. -1.
    9900012    2    1    2    0    0 -0.33066697908E+01  0.24362619571E+02  0.35765233130E+02  0.47787271915E+02  0.20000003968E+02 0.  0.
        -12    1    1    2    0    0  0.33066697908E+01 -0.24362619571E+02 -0.35765233130E+02  0.43400728085E+02  0.00000000000E+00 0.  1.
         11    1    3    3    0    0 -0.39246983201E+01  0.39349471072E+01  0.85878180663E+01  0.10229256329E+02  0.51100000000E-03 0. -1.
        -11    1    3    3    0    0 -0.52792464277E+00 -0.16735997111E+01 -0.76393876473E+00  0.19139600620E+01  0.51100000000E-03 0.  1.
        -12    1    3    3    0    0  0.11459531721E+01  0.22101272175E+02  0.27941353829E+02  0.35644055524E+02  0.00000000000E+00 0.  1.
</event>
<event>
 7    1  0.9175399E-010  0.4778728E+02  0.7816164E-02  0.1312668E+00
        -11   -1    0    0    0    0  0.00000000000E+00  0.00000000000E+00  0.45593999997E+02  0.45594000000E+02  0.51100000000E-03 0. -1.
         11   -1    0    0    0    0 -0.00000000000E+00 -0.00000000000E+00 -0.45593999997E+02  0.45594000000E+02  0.51100000000E-03 0.  1.
    9900012    2    1    2    0    0 -0.66265461062E+01 -0.19223965257E+02  0.38342544248E+02  0.47787278198E+02  0.20000032617E+02 0.  0.
        -12    1    1    2    0    0  0.66265461062E+01  0.19223965257E+02 -0.38342544248E+02  0.43400721802E+02  0.00000000000E+00 0.  1.
         11    1    3    3    0    0  0.46528512891E+01 -0.80908952872E+01  0.11964908346E+02  0.15174671122E+02  0.51100000000E-03 0.  1.
        -11    1    3    3    0    0 -0.13034577648E+02 -0.11082891210E+02  0.21817221284E+02  0.27725833385E+02  0.51100000000E-03 0. -1.
         12    1    3    3    0    0  0.17551802529E+01 -0.50178759307E-01  0.45604146183E+01  0.48867736922E+01  0.00000000000E+00 0. -1.
</event>
<event>
 7    1  0.9175399E-010  0.4778728E+02  0.7816164E-02  0.1312668E+00
        -11   -1    0    0    0    0  0.00000000000E+00  0.00000000000E+00  0.45593999997E+02  0.45594000000E+02  0.51100000000E-03 0. -1.
         11   -1    0    0    0    0 -0.00000000000E+00 -0.00000000000E+00 -0.45593999997E+02  0.45594000000E+02  0.51100000000E-03 0.  1.
    9900012    2    1    2    0    0 -0.19505290381E+02 -0.60529513364E+01  0.38295271360E+02  0.47787281328E+02  0.20000046885E+02 0.  0.
        -12    1    1    2    0    0  0.19505290381E+02  0.60529513364E+01 -0.38295271360E+02  0.43400718672E+02  0.00000000000E+00 0.  1.
         11    1    3    3    0    0 -0.42046920964E+01 -0.12325002856E+01  0.25554576432E+02  0.25927492541E+02  0.51100000000E-03 0. -1.
        -11    1    3    3    0    0 -0.58490743920E+01 -0.10133117165E+01  0.53544448910E+00  0.59602997357E+01  0.51100000000E-03 0.  1.
         12    1    3    3    0    0 -0.94515238922E+01 -0.38071393343E+01  0.12205250439E+02  0.15899489051E+02  0.00000000000E+00 0. -1.
</event>
<event>
 7    1  0.9175399E-010  0.4778730E+02  0.7816164E-02  0.1312668E+00
        -11   -1    0    0    0    0  0.00000000000E+00  0.00000000000E+00  0.45593999997E+02  0.45594000000E+02  0.51100000000E-03 0. -1.
         11   -1    0    0    0    0 -0.00000000000E+00 -0.00000000000E+00 -0.45593999997E+02  0.45594000000E+02  0.51100000000E-03 0.  1.
    9900012    2    1    2    0    0  0.35027897416E+02 -0.26906648595E+01  0.25483869588E+02  0.47787298578E+02  0.20000125534E+02 0.  0.
        -12    1    1    2    0    0 -0.35027897416E+02  0.26906648595E+01 -0.25483869588E+02  0.43400701422E+02  0.00000000000E+00 0.  1.
         11    1    3    3    0    0  0.10955427648E+02  0.20876804903E+01  0.13863559365E+01  0.11238406819E+02  0.51100000000E-03 0. -1.
        -11    1    3    3    0    0  0.30392381597E+01  0.26958060469E+01  0.54452537336E+00  0.40988836258E+01  0.51100000000E-03 0.  1.
         12    1    3    3    0    0  0.21033231608E+02 -0.74741513967E+01  0.23552988279E+02  0.32450008133E+02  0.00000000000E+00 0. -1.
</event>
<event>
 7    1  0.1327820E-009  0.4778728E+02  0.7816164E-02  0.1312668E+00
        -11   -1    0    0    0    0  0.00000000000E+00  0.00000000000E+00  0.45593999997E+02  0.45594000000E+02  0.51100000000E-03 0. -1.
         11   -1    0    0    0    0 -0.00000000000E+00 -0.00000000000E+00 -0.45593999997E+02  0.45594000000E+02  0.51100000000E-03 0.  1.
    9900012    2    1    2    0    0  0.16039830339E+02 -0.29842663680E+02 -0.27124929527E+02  0.47787279561E+02  0.20000038829E+02 0.  0.
         12    1    1    2    0    0 -0.16039830339E+02  0.29842663680E+02  0.27124929527E+02  0.43400720439E+02  0.00000000000E+00 0. -1.
         11    1    3    3    0    0 -0.65640003876E+00  0.13138114767E+01  0.67077399083E+00  0.16145896119E+01  0.51100000000E-03 0. -1.
        -11    1    3    3    0    0  0.93799906884E+01 -0.17682581547E+02 -0.22098947251E+02  0.29816461650E+02  0.51100000000E-03 0.  1.
         12    1    3    3    0    0  0.73162396891E+01 -0.13473893609E+02 -0.56967562671E+01  0.16356228298E+02  0.00000000000E+00 0. -1.
</event>
<event>
 7    1  0.9175399E-010  0.4778727E+02  0.7816164E-02  0.1312668E+00
        -11   -1    0    0    0    0  0.00000000000E+00  0.00000000000E+00  0.45593999997E+02  0.45594000000E+02  0.51100000000E-03 0. -1.
         11   -1    0    0    0    0 -0.00000000000E+00 -0.00000000000E+00 -0.45593999997E+02  0.45594000000E+02  0.51100000000E-03 0.  1.
    9900012    2    1    2    0    0  0.58257588661E+01  0.11850234742E+02  0.41343145213E+02  0.47787272058E+02  0.20000004619E+02 0.  0.
        -12    1    1    2    0    0 -0.58257588661E+01 -0.11850234742E+02 -0.41343145213E+02  0.43400727942E+02  0.00000000000E+00 0.  1.
         11    1    3    3    0    0  0.52585999583E+01  0.77730236534E+01  0.70691128688E+01  0.11749260711E+02  0.51100000000E-03 0. -1.
        -11    1    3    3    0    0 -0.23364657574E+01 -0.28147216602E+01  0.11331157851E+02  0.11907009229E+02  0.51100000000E-03 0.  1.
         12    1    3    3    0    0  0.29036246653E+01  0.68919327486E+01  0.22942874493E+02  0.24131002118E+02  0.00000000000E+00 0. -1.
</event>
<event>
 7    1  0.9175399E-010  0.4778727E+02  0.7816164E-02  0.1312668E+00
        -11   -1    0    0    0    0  0.00000000000E+00  0.00000000000E+00  0.45593999997E+02  0.45594000000E+02  0.51100000000E-03 0. -1.
         11   -1    0    0    0    0 -0.00000000000E+00 -0.00000000000E+00 -0.45593999997E+02  0.45594000000E+02  0.51100000000E-03 0.  1.
    9900012    2    1    2    0    0 -0.61937326656E+01 -0.18257391556E+01  0.42917685446E+02  0.47787269915E+02  0.19999994852E+02 0.  0.
        -12    1    1    2    0    0  0.61937326656E+01  0.18257391556E+01 -0.42917685446E+02  0.43400730085E+02  0.00000000000E+00 0.  1.
         11    1    3    3    0    0 -0.90438187978E+00 -0.28637246465E+01 -0.66767018859E+00  0.30764604950E+01  0.51100000000E-03 0.  1.
        -11    1    3    3    0    0 -0.54362764660E+01  0.40814604448E+01  0.33143628611E+02  0.33833585960E+02  0.51100000000E-03 0. -1.
         12    1    3    3    0    0  0.14692568020E+00 -0.30434749539E+01  0.10441727024E+02  0.10877223460E+02  0.00000000000E+00 0. -1.
</event>
<event>
 7    1  0.9175399E-010  0.4778732E+02  0.7816164E-02  0.1312668E+00
        -11   -1    0    0    0    0  0.00000000000E+00  0.00000000000E+00  0.45593999997E+02  0.45594000000E+02  0.51100000000E-03 0.  1.
         11   -1    0    0    0    0 -0.00000000000E+00 -0.00000000000E+00 -0.45593999997E+02  0.45594000000E+02  0.51100000000E-03 0. -1.
    9900012    2    1    2    0    0 -0.22156557071E+02  0.36893658298E+02 -0.56182074036E+01  0.47787316845E+02  0.20000208824E+02 0.  0.
         12    1    1    2    0    0  0.22156557071E+02 -0.36893658298E+02  0.56182074036E+01  0.43400683155E+02  0.00000000000E+00 0. -1.
         11    1    3    3    0    0  0.26454771571E+00 -0.15644697279E+01 -0.90580371348E+00  0.18270280928E+01  0.51100000000E-03 0. -1.
        -11    1    3    3    0    0 -0.11887628052E+02  0.29592840179E+02 -0.22158413667E+01  0.31968137947E+02  0.51100000000E-03 0.  1.
        -12    1    3    3    0    0 -0.10533476735E+02  0.88652878467E+01 -0.24965623234E+01  0.13992150806E+02  0.00000000000E+00 0.  1.
</event>
<event>
 7    1  0.9175399E-010  0.4778727E+02  0.7816164E-02  0.1312668E+00
        -11   -1    0    0    0    0  0.00000000000E+00  0.00000000000E+00  0.45593999997E+02  0.45594000000E+02  0.51100000000E-03 0. -1.
         11   -1    0    0    0    0 -0.00000000000E+00 -0.00000000000E+00 -0.45593999997E+02  0.45594000000E+02  0.51100000000E-03 0.  1.
    9900012    2    1    2    0    0 -0.22219183677E+02  0.21487284608E+02 -0.30466828553E+02  0.47787272297E+02  0.20000005709E+02 0.  0.
         12    1    1    2    0    0  0.22219183677E+02 -0.21487284608E+02  0.30466828553E+02  0.43400727703E+02  0.00000000000E+00 0. -1.
         11    1    3    3    0    0 -0.40539032647E+01  0.23165299590E+01  0.23764126006E+01  0.52390628780E+01  0.51100000000E-03 0. -1.
        -11    1    3    3    0    0 -0.15812920130E+02  0.18882583442E+02 -0.30646330435E+02  0.39316637316E+02  0.51100000000E-03 0.  1.
        -12    1    3    3    0    0 -0.23523602830E+01  0.28817120680E+00 -0.21969107188E+01  0.32315721022E+01  0.00000000000E+00 0.  1.
</event>
<event>
 7    1  0.9175399E-010  0.4778727E+02  0.7816164E-02  0.1312668E+00
        -11   -1    0    0    0    0  0.00000000000E+00  0.00000000000E+00  0.45593999997E+02  0.45594000000E+02  0.51100000000E-03 0. -1.
         11   -1    0    0    0    0 -0.00000000000E+00 -0.00000000000E+00 -0.45593999997E+02  0.45594000000E+02  0.51100000000E-03 0.  1.
    9900012    2    1    2    0    0  0.19370219542E+02 -0.24763268097E+02  0.29919870146E+02  0.47787268652E+02  0.19999989092E+02 0.  0.
        -12    1    1    2    0    0 -0.19370219542E+02  0.24763268097E+02 -0.29919870146E+02  0.43400731348E+02  0.00000000000E+00 0.  1.
         11    1    3    3    0    0  0.91979280794E+01 -0.13076974920E+02  0.23565545893E+02  0.28477080390E+02  0.51100000000E-03 0. -1.
        -11    1    3    3    0    0  0.11225134871E+02 -0.12475384907E+02  0.64772933075E+01  0.17988724532E+02  0.51100000000E-03 0.  1.
        -12    1    3    3    0    0 -0.10528434082E+01  0.78909173029E+00 -0.12296905418E+00  0.13214637298E+01  0.00000000000E+00 0.  1.
</event>
<event>
 7    1  0.9175399E-010  0.4778727E+02  0.7816164E-02  0.1312668E+00
        -11   -1    0    0    0    0  0.00000000000E+00  0.00000000000E+00  0.45593999997E+02  0.45594000000E+02  0.51100000000E-03 0. -1.
         11   -1    0    0    0    0 -0.00000000000E+00 -0.00000000000E+00 -0.45593999997E+02  0.45594000000E+02  0.51100000000E-03 0.  1.
    9900012    2    1    2    0    0 -0.28585093736E+02 -0.11913426263E+02 -0.30407008211E+02  0.47787268928E+02  0.19999990352E+02 0.  0.
         12    1    1    2    0    0  0.28585093736E+02  0.11913426263E+02  0.30407008211E+02  0.43400731072E+02  0.00000000000E+00 0. -1.
         11    1    3    3    0    0 -0.77047553796E+01  0.50686673661E+01 -0.92384883534E+01  0.13053900247E+02  0.51100000000E-03 0. -1.
        -11    1    3    3    0    0 -0.21124039853E+02 -0.17079940613E+02 -0.21213638615E+02  0.34466910140E+02  0.51100000000E-03 0.  1.
        -12    1    3    3    0    0  0.24370149740E+00  0.97846983400E-01  0.45118757488E-01  0.26645854137E+00  0.00000000000E+00 0.  1.
</event>
<event>
 7    1  0.9175399E-010  0.4778727E+02  0.7816164E-02  0.1312668E+00
        -11   -1    0    0    0    0  0.00000000000E+00  0.00000000000E+00  0.45593999997E+02  0.45594000000E+02  0.51100000000E-03 0. -1.
         11   -1    0    0    0    0 -0.00000000000E+00 -0.00000000000E+00 -0.45593999997E+02  0.45594000000E+02  0.51100000000E-03 0.  1.
    9900012    2    1    2    0    0  0.45565182425E+01 -0.11295557929E+02  0.41656596515E+02  0.47787268202E+02  0.19999987039E+02 0.  0.
        -12    1    1    2    0    0 -0.45565182425E+01  0.11295557929E+02 -0.41656596515E+02  0.43400731798E+02  0.00000000000E+00 0.  1.
         11    1    3    3    0    0  0.10045798794E+01 -0.10143388396E+02  0.35358553312E+02  0.36798434769E+02  0.51100000000E-03 0. -1.
        -11    1    3    3    0    0  0.19315825924E+01  0.30309942055E+01  0.52825473280E+01  0.63893069827E+01  0.51100000000E-03 0.  1.
         12    1    3    3    0    0  0.16203557707E+01 -0.41831637391E+01  0.10154958746E+01  0.45995264499E+01  0.00000000000E+00 0. -1.
</event>
<event>
 7    1  0.9175399E-010  0.4778726E+02  0.7816164E-02  0.1312668E+00
        -11   -1    0    0    0    0  0.00000000000E+00  0.00000000000E+00  0.45593999997E+02  0.45594000000E+02  0.51100000000E-03 0. -1.
         11   -1    0    0    0    0 -0.00000000000E+00 -0.00000000000E+00 -0.45593999997E+02  0.45594000000E+02  0.51100000000E-03 0.  1.
    9900012    2    1    2    0    0  0.32834100709E+02  0.91869144034E+01 -0.26854166313E+02  0.47787264822E+02  0.19999971630E+02 0.  0.
         12    1    1    2    0    0 -0.32834100709E+02 -0.91869144034E+01  0.26854166313E+02  0.43400735178E+02  0.00000000000E+00 0. -1.
         11    1    3    3    0    0  0.18842040209E+02  0.43564191201E+01 -0.51984757646E+01  0.20025609038E+02  0.51100000000E-03 0. -1.
        -11    1    3    3    0    0  0.79418532160E+01  0.72290407128E+01 -0.15046421926E+02  0.18485856084E+02  0.51100000000E-03 0.  1.
         12    1    3    3    0    0  0.60502072838E+01 -0.23985454295E+01 -0.66092686222E+01  0.92757997000E+01  0.00000000000E+00 0. -1.
</event>
<event>
 7    1  0.9175399E-010  0.4778727E+02  0.7816164E-02  0.1312668E+00
        -11   -1    0    0    0    0  0.00000000000E+00  0.00000000000E+00  0.45593999997E+02  0.45594000000E+02  0.51100000000E-03 0. -1.
         11   -1    0    0    0    0 -0.00000000000E+00 -0.00000000000E+00 -0.45593999997E+02  0.45594000000E+02  0.51100000000E-03 0.  1.
    9900012    2    1    2    0    0 -0.96779607554E+01  0.34599218634E+02  0.24348610986E+02  0.47787266004E+02  0.19999977018E+02 0.  0.
        -12    1    1    2    0    0  0.96779607554E+01 -0.34599218634E+02 -0.24348610986E+02  0.43400733996E+02  0.00000000000E+00 0.  1.
         11    1    3    3    0    0 -0.10608238892E+02  0.17581762976E+02  0.17101444642E+02  0.26722884029E+02  0.51100000000E-03 0. -1.
        -11    1    3    3    0    0 -0.11578034832E+01  0.15786532983E+02  0.29076084301E+01  0.16093766482E+02  0.51100000000E-03 0.  1.
         12    1    3    3    0    0  0.20880816196E+01  0.12309226741E+01  0.43395579147E+01  0.49706154925E+01  0.00000000000E+00 0. -1.
</event>
<event>
 7    1  0.9175399E-010  0.4778728E+02  0.7816164E-02  0.1312668E+00
        -11   -1    0    0    0    0  0.00000000000E+00  0.00000000000E+00  0.45593999997E+02  0.45594000000E+02  0.51100000000E-03 0. -1.
         11   -1    0    0    0    0 -0.00000000000E+00 -0.00000000000E+00 -0.45593999997E+02  0.45594000000E+02  0.51100000000E-03 0.  1.
    9900012    2    1    2    0    0 -0.10014911201E+02 -0.37465805439E+02  0.19484285056E+02  0.47787281254E+02  0.20000046549E+02 0.  0.
        -12    1    1    2    0    0  0.10014911201E+02  0.37465805439E+02 -0.19484285056E+02  0.43400718746E+02  0.00000000000E+00 0.  1.
         11    1    3    3    0    0 -0.99019152334E+01 -0.20755866945E+02  0.15503457680E+02  0.27734655905E+02  0.51100000000E-03 0. -1.
        -11    1    3    3    0    0  0.75724747924E+00 -0.71674703954E+00 -0.25504212665E+01  0.27553219343E+01  0.51100000000E-03 0.  1.
         12    1    3    3    0    0 -0.87024344635E+00 -0.15993191455E+02  0.65312486431E+01  0.17297303414E+02  0.00000000000E+00 0. -1.
</event>
<event>
 7    1  0.9175399E-010  0.4778727E+02  0.7816164E-02  0.1312668E+00
        -11   -1    0    0    0    0  0.00000000000E+00  0.00000000000E+00  0.45593999997E+02  0.45594000000E+02  0.51100000000E-03 0. -1.
         11   -1    0    0    0    0 -0.00000000000E+00 -0.00000000000E+00 -0.45593999997E+02  0.45594000000E+02  0.51100000000E-03 0.  1.
    9900012    2    1    2    0    0  0.36999043941E+02 -0.85197085909E+01  0.21026378815E+02  0.47787270823E+02  0.19999998989E+02 0.  0.
        -12    1    1    2    0    0 -0.36999043941E+02  0.85197085909E+01 -0.21026378815E+02  0.43400729177E+02  0.00000000000E+00 0.  1.
         11    1    3    3    0    0  0.21566727773E+02 -0.51367611261E+01  0.20853489736E+02  0.30436459980E+02  0.51100000000E-03 0. -1.
        -11    1    3    3    0    0  0.46812580630E+01  0.17654973219E+01  0.18062928868E+01  0.53191965653E+01  0.51100000000E-03 0.  1.
         12    1    3    3    0    0  0.10751058106E+02 -0.51484447867E+01 -0.16334038081E+01  0.12031614277E+02  0.00000000000E+00 0. -1.
</event>
<event>
 7    1  0.9175399E-010  0.4778726E+02  0.7816164E-02  0.1312668E+00
        -11   -1    0    0    0    0  0.00000000000E+00  0.00000000000E+00  0.45593999997E+02  0.45594000000E+02  0.51100000000E-03 0. -1.
         11   -1    0    0    0    0 -0.00000000000E+00 -0.00000000000E+00 -0.45593999997E+02  0.45594000000E+02  0.51100000000E-03 0.  1.
    9900012    2    1    2    0    0  0.10886040732E+02  0.21157352923E+02 -0.36297167986E+02  0.47787264184E+02  0.19999968722E+02 0.  0.
         12    1    1    2    0    0 -0.10886040732E+02 -0.21157352923E+02  0.36297167986E+02  0.43400735816E+02  0.00000000000E+00 0. -1.
         11    1    3    3    0    0 -0.30821026733E+01  0.93739842390E+01 -0.76114471464E+01  0.12462145294E+02  0.51100000000E-03 0. -1.
        -11    1    3    3    0    0  0.13840184611E+02  0.13230576406E+02 -0.26997925870E+02  0.33098139882E+02  0.51100000000E-03 0.  1.
        -12    1    3    3    0    0  0.12795879420E+00 -0.14472077221E+01 -0.16877949702E+01  0.22269790088E+01  0.00000000000E+00 0.  1.
</event>
<event>
 7    1  0.9175399E-010  0.4778727E+02  0.7816164E-02  0.1312668E+00
        -11   -1    0    0    0    0  0.00000000000E+00  0.00000000000E+00  0.45593999997E+02  0.45594000000E+02  0.51100000000E-03 0. -1.
         11   -1    0    0    0    0 -0.00000000000E+00 -0.00000000000E+00 -0.45593999997E+02  0.45594000000E+02  0.51100000000E-03 0.  1.
    9900012    2    1    2    0    0 -0.70614461085E+01  0.36573931209E+02 -0.22273452332E+02  0.47787272540E+02  0.20000006819E+02 0.  0.
         12    1    1    2    0    0  0.70614461085E+01 -0.36573931209E+02  0.22273452332E+02  0.43400727460E+02  0.00000000000E+00 0. -1.
         11    1    3    3    0    0  0.34002755445E+01  0.18735542694E+02 -0.12745533430E+02  0.22913556173E+02  0.51100000000E-03 0. -1.
        -11    1    3    3    0    0 -0.50297876738E+01  0.13113080760E+02 -0.10598578237E+02  0.17594928587E+02  0.51100000000E-03 0.  1.
         12    1    3    3    0    0 -0.54319339792E+01  0.47253077548E+01  0.10706593350E+01  0.72787877798E+01  0.00000000000E+00 0. -1.
</event>
<event>
 7    1  0.9175399E-010  0.4778726E+02  0.7816164E-02  0.1312668E+00
        -11   -1    0    0    0    0  0.00000000000E+00  0.00000000000E+00  0.45593999997E+02  0.45594000000E+02  0.51100000000E-03 0. -1.
         11   -1    0    0    0    0 -0.00000000000E+00 -0.00000000000E+00 -0.45593999997E+02  0.45594000000E+02  0.51100000000E-03 0.  1.
    9900012    2    1    2    0    0  0.62587833831E+01  0.21455421045E+02 -0.37203715061E+02  0.47787264108E+02  0.19999968375E+02 0.  0.
         12    1    1    2    0    0 -0.62587833831E+01 -0.21455421045E+02  0.37203715061E+02  0.43400735892E+02  0.00000000000E+00 0. -1.
         11    1    3    3    0    0  0.23620366282E+01 -0.59716907284E+00 -0.30466273995E+01  0.39009956046E+01  0.51100000000E-03 0. -1.
        -11    1    3    3    0    0  0.28213001335E+01  0.96698043033E+01 -0.28504391947E+02  0.30231857539E+02  0.51100000000E-03 0.  1.
        -12    1    3    3    0    0  0.10754466214E+01  0.12382785814E+02 -0.56526957139E+01  0.13654410965E+02  0.00000000000E+00 0.  1.
</event>
<event>
 7    1  0.9175399E-010  0.4778727E+02  0.7816164E-02  0.1312668E+00
        -11   -1    0    0    0    0  0.00000000000E+00  0.00000000000E+00  0.45593999997E+02  0.45594000000E+02  0.51100000000E-03 0.  1.
         11   -1    0    0    0    0 -0.00000000000E+00 -0.00000000000E+00 -0.45593999997E+02  0.45594000000E+02  0.51100000000E-03 0. -1.
    9900012    2    1    2    0    0  0.43195943271E+01 -0.61722545215E+01 -0.42741875893E+02  0.47787267565E+02  0.19999984135E+02 0.  0.
         12    1    1    2    0    0 -0.43195943271E+01  0.61722545215E+01  0.42741875893E+02  0.43400732435E+02  0.00000000000E+00 0. -1.
         11    1    3    3    0    0 -0.27935107634E+01 -0.21148857395E+00 -0.24646903385E+02  0.24805609780E+02  0.51100000000E-03 0. -1.
        -11    1    3    3    0    0  0.63833163776E+01 -0.70840813040E+01 -0.19072405318E+02  0.21323404531E+02  0.51100000000E-03 0.  1.
        -12    1    3    3    0    0  0.72978871283E+00  0.11233153565E+01  0.97743281030E+00  0.16582532539E+01  0.00000000000E+00 0.  1.
</event>
<event>
 7    1  0.9175399E-010  0.4778727E+02  0.7816164E-02  0.1312668E+00
        -11   -1    0    0    0    0  0.00000000000E+00  0.00000000000E+00  0.45593999997E+02  0.45594000000E+02  0.51100000000E-03 0. -1.
         11   -1    0    0    0    0 -0.00000000000E+00 -0.00000000000E+00 -0.45593999997E+02  0.45594000000E+02  0.51100000000E-03 0.  1.
    9900012    2    1    2    0    0  0.90983896743E+01  0.20887692984E+02  0.36939775189E+02  0.47787269547E+02  0.19999993171E+02 0.  0.
        -12    1    1    2    0    0 -0.90983896743E+01 -0.20887692984E+02 -0.36939775189E+02  0.43400730453E+02  0.00000000000E+00 0.  1.
         11    1    3    3    0    0  0.25188402423E+01  0.58113081334E-01 -0.11977009080E+01  0.27896990918E+01  0.51100000000E-03 0.  1.
        -11    1    3    3    0    0  0.35670901952E+01  0.20354225069E+02  0.34829334254E+02  0.40498162124E+02  0.51100000000E-03 0. -1.
         12    1    3    3    0    0  0.30124592368E+01  0.47535483378E+00  0.33081418430E+01  0.44994083305E+01  0.00000000000E+00 0. -1.
</event>
<event>
 7    1  0.9175399E-010  0.4778727E+02  0.7816164E-02  0.1312668E+00
        -11   -1    0    0    0    0  0.00000000000E+00  0.00000000000E+00  0.45593999997E+02  0.45594000000E+02  0.51100000000E-03 0. -1.
         11   -1    0    0    0    0 -0.00000000000E+00 -0.00000000000E+00 -0.45593999997E+02  0.45594000000E+02  0.51100000000E-03 0.  1.
    9900012    2    1    2    0    0 -0.87458969445E+01 -0.19674566934E+02  0.37683471045E+02  0.47787270888E+02  0.19999999289E+02 0.  0.
        -12    1    1    2    0    0  0.87458969445E+01  0.19674566934E+02 -0.37683471045E+02  0.43400729112E+02  0.00000000000E+00 0.  1.
         11    1    3    3    0    0  0.19052642969E+01 -0.13829610377E+02  0.12359425290E+02  0.18645201768E+02  0.51100000000E-03 0. -1.
        -11    1    3    3    0    0 -0.33481927974E+01  0.13337542813E+01  0.34479204954E+01  0.49877300944E+01  0.51100000000E-03 0.  1.
         12    1    3    3    0    0 -0.73029684439E+01 -0.71787108387E+01  0.21876125260E+02  0.24154339026E+02  0.00000000000E+00 0. -1.
</event>
<event>
 7    1  0.9175399E-010  0.4778727E+02  0.7816164E-02  0.1312668E+00
        -11   -1    0    0    0    0  0.00000000000E+00  0.00000000000E+00  0.45593999997E+02  0.45594000000E+02  0.51100000000E-03 0. -1.
         11   -1    0    0    0    0 -0.00000000000E+00 -0.00000000000E+00 -0.45593999997E+02  0.45594000000E+02  0.51100000000E-03 0.  1.
    9900012    2    1    2    0    0 -0.32606866179E+02  0.11996876789E+02 -0.26009427088E+02  0.47787273369E+02  0.20000010597E+02 0.  0.
         12    1    1    2    0    0  0.32606866179E+02 -0.11996876789E+02  0.26009427088E+02  0.43400726631E+02  0.00000000000E+00 0. -1.
         11    1    3    3    0    0 -0.11096527659E+02 -0.25648660739E+00 -0.22091542327E+01  0.11317202577E+02  0.51100000000E-03 0. -1.
        -11    1    3    3    0    0 -0.22069837896E+02  0.13432294826E+02 -0.20698156429E+02  0.33104651771E+02  0.51100000000E-03 0.  1.
        -12    1    3    3    0    0  0.55949937613E+00 -0.11789314299E+01 -0.31021164261E+01  0.33654190214E+01  0.00000000000E+00 0.  1.
</event>
<event>
 7    1  0.9175399E-010  0.4778727E+02  0.7816164E-02  0.1312668E+00
        -11   -1    0    0    0    0  0.00000000000E+00  0.00000000000E+00  0.45593999997E+02  0.45594000000E+02  0.51100000000E-03 0. -1.
         11   -1    0    0    0    0 -0.00000000000E+00 -0.00000000000E+00 -0.45593999997E+02  0.45594000000E+02  0.51100000000E-03 0.  1.
    9900012    2    1    2    0    0  0.31108164976E+02 -0.99865511241E+01  0.28568762299E+02  0.47787270619E+02  0.19999998060E+02 0.  0.
        -12    1    1    2    0    0 -0.31108164976E+02  0.99865511241E+01 -0.28568762299E+02  0.43400729381E+02  0.00000000000E+00 0.  1.
         11    1    3    3    0    0  0.16692048310E+01  0.27820082472E+00  0.51152329621E+01  0.53878798228E+01  0.51100000000E-03 0. -1.
        -11    1    3    3    0    0  0.24713237333E+02 -0.69833133242E+01  0.25597716429E+02  0.36259534623E+02  0.51100000000E-03 0.  1.
        -12    1    3    3    0    0  0.47257228118E+01 -0.32814386246E+01 -0.21441870919E+01  0.61398561730E+01  0.00000000000E+00 0.  1.
</event>
<event>
 7    1  0.9175399E-010  0.4778727E+02  0.7816164E-02  0.1312668E+00
        -11   -1    0    0    0    0  0.00000000000E+00  0.00000000000E+00  0.45593999997E+02  0.45594000000E+02  0.51100000000E-03 0. -1.
         11   -1    0    0    0    0 -0.00000000000E+00 -0.00000000000E+00 -0.45593999997E+02  0.45594000000E+02  0.51100000000E-03 0.  1.
    9900012    2    1    2    0    0  0.20124254031E+02  0.95287386492E+01 -0.37253740345E+02  0.47787266939E+02  0.19999981280E+02 0.  0.
         12    1    1    2    0    0 -0.20124254031E+02 -0.95287386492E+01  0.37253740345E+02  0.43400733061E+02  0.00000000000E+00 0. -1.
         11    1    3    3    0    0  0.18292447636E+02 -0.83451340621E+00 -0.27243229875E+02  0.32825350378E+02  0.51100000000E-03 0. -1.
        -11    1    3    3    0    0  0.19523584015E+01  0.85274541535E+01 -0.97574420088E+01  0.13104840803E+02  0.51100000000E-03 0.  1.
         12    1    3    3    0    0 -0.12055200617E+00  0.18357979019E+01 -0.25306846133E+00  0.18570757574E+01  0.00000000000E+00 0. -1.
</event>
<event>
 7    1  0.9175399E-010  0.4778726E+02  0.7816164E-02  0.1312668E+00
        -11   -1    0    0    0    0  0.00000000000E+00  0.00000000000E+00  0.45593999997E+02  0.45594000000E+02  0.51100000000E-03 0. -1.
         11   -1    0    0    0    0 -0.00000000000E+00 -0.00000000000E+00 -0.45593999997E+02  0.45594000000E+02  0.51100000000E-03 0.  1.
    9900012    2    1    2    0    0 -0.10769662628E+02 -0.50094059361E+00  0.42040309223E+02  0.47787260672E+02  0.19999952710E+02 0.  0.
        -12    1    1    2    0    0  0.10769662628E+02  0.50094059361E+00 -0.42040309223E+02  0.43400739328E+02  0.00000000000E+00 0.  1.
         11    1    3    3    0    0 -0.49638665810E+01 -0.68082033138E+01  0.28563964925E+02  0.29780726927E+02  0.51100000000E-03 0. -1.
        -11    1    3    3    0    0 -0.29247921347E+01  0.66026644116E+01  0.13264278789E+02  0.15102671235E+02  0.51100000000E-03 0.  1.
        -12    1    3    3    0    0 -0.28810039125E+01 -0.29540169135E+00  0.21206550918E+00  0.29038625111E+01  0.00000000000E+00 0.  1.
</event>
<event>
 7    1  0.9175399E-010  0.4778728E+02  0.7816164E-02  0.1312668E+00
        -11   -1    0    0    0    0  0.00000000000E+00  0.00000000000E+00  0.45593999997E+02  0.45594000000E+02  0.51100000000E-03 0. -1.
         11   -1    0    0    0    0 -0.00000000000E+00 -0.00000000000E+00 -0.45593999997E+02  0.45594000000E+02  0.51100000000E-03 0.  1.
    9900012    2    1    2    0    0  0.10617802766E+02  0.36939783344E+02  0.20157804314E+02  0.47787281068E+02  0.20000045702E+02 0.  0.
        -12    1    1    2    0    0 -0.10617802766E+02 -0.36939783344E+02 -0.20157804314E+02  0.43400718932E+02  0.00000000000E+00 0.  1.
         11    1    3    3    0    0 -0.20340757141E+01  0.16457861146E+02  0.97833636715E+01  0.19253905123E+02  0.51100000000E-03 0. -1.
        -11    1    3    3    0    0  0.10909005520E+02  0.12958372422E+02  0.11848009081E+02  0.20671263549E+02  0.51100000000E-03 0.  1.
        -12    1    3    3    0    0  0.17428729599E+01  0.75235497754E+01 -0.14735684386E+01  0.78621123955E+01  0.00000000000E+00 0.  1.
</event>
<event>
 7    1  0.9175399E-010  0.4778728E+02  0.7816164E-02  0.1312668E+00
        -11   -1    0    0    0    0  0.00000000000E+00  0.00000000000E+00  0.45593999997E+02  0.45594000000E+02  0.51100000000E-03 0. -1.
         11   -1    0    0    0    0 -0.00000000000E+00 -0.00000000000E+00 -0.45593999997E+02  0.45594000000E+02  0.51100000000E-03 0.  1.
    9900012    2    1    2    0    0 -0.29956964922E+02 -0.23214329625E+02  0.21149417284E+02  0.47787277671E+02  0.20000030212E+02 0.  0.
        -12    1    1    2    0    0  0.29956964922E+02  0.23214329625E+02 -0.21149417284E+02  0.43400722329E+02  0.00000000000E+00 0.  1.
         11    1    3    3    0    0 -0.12795378627E+02 -0.60524199755E+01  0.16433738707E+02  0.21689197078E+02  0.51100000000E-03 0. -1.
        -11    1    3    3    0    0 -0.14531857293E+02 -0.90521835907E+01  0.26330211523E+01  0.17321942870E+02  0.51100000000E-03 0.  1.
         12    1    3    3    0    0 -0.26297290021E+01 -0.81097260585E+01  0.20826574247E+01  0.87761377221E+01  0.00000000000E+00 0. -1.
</event>
<event>
 7    1  0.9175399E-010  0.4778727E+02  0.7816164E-02  0.1312668E+00
        -11   -1    0    0    0    0  0.00000000000E+00  0.00000000000E+00  0.45593999997E+02  0.45594000000E+02  0.51100000000E-03 0. -1.
         11   -1    0    0    0    0 -0.00000000000E+00 -0.00000000000E+00 -0.45593999997E+02  0.45594000000E+02  0.51100000000E-03 0.  1.
    9900012    2    1    2    0    0 -0.10362865093E+01  0.17909890230E+02  0.39519433730E+02  0.47787266134E+02  0.19999977609E+02 0.  0.
        -12    1    1    2    0    0  0.10362865093E+01 -0.17909890230E+02 -0.39519433730E+02  0.43400733866E+02  0.00000000000E+00 0.  1.
         11    1    3    3    0    0 -0.87202841732E+00  0.13456461331E+02  0.18221823821E+02  0.22668737256E+02  0.51100000000E-03 0. -1.
        -11    1    3    3    0    0  0.57475412287E+01  0.14933706295E+01  0.14338378725E+02  0.15519455234E+02  0.51100000000E-03 0.  1.
        -12    1    3    3    0    0 -0.59117993207E+01  0.29600582689E+01  0.69592311836E+01  0.95990736444E+01  0.00000000000E+00 0.  1.
</event>
<event>
 7    1  0.9175399E-010  0.4778727E+02  0.7816164E-02  0.1312668E+00
        -11   -1    0    0    0    0  0.00000000000E+00  0.00000000000E+00  0.45593999997E+02  0.45594000000E+02  0.51100000000E-03 0. -1.
         11   -1    0    0    0    0 -0.00000000000E+00 -0.00000000000E+00 -0.45593999997E+02  0.45594000000E+02  0.51100000000E-03 0.  1.
    9900012    2    1    2    0    0  0.25701141382E+02  0.56831188936E+01  0.34507635266E+02  0.47787269587E+02  0.19999993356E+02 0.  0.
        -12    1    1    2    0    0 -0.25701141382E+02 -0.56831188936E+01 -0.34507635266E+02  0.43400730413E+02  0.00000000000E+00 0.  1.
         11    1    3    3    0    0  0.46188588675E+01  0.42634712302E+01  0.80021807786E+01  0.10175752633E+02  0.51100000000E-03 0. -1.
        -11    1    3    3    0    0  0.20881702173E+02 -0.27748869703E+00  0.28275263607E+02  0.35151287571E+02  0.51100000000E-03 0.  1.
        -12    1    3    3    0    0  0.20058034234E+00  0.16971363604E+01 -0.17698091195E+01  0.24602293835E+01  0.00000000000E+00 0.  1.
</event>
<event>
 7    1  0.9175399E-010  0.4778727E+02  0.7816164E-02  0.1312668E+00
        -11   -1    0    0    0    0  0.00000000000E+00  0.00000000000E+00  0.45593999997E+02  0.45594000000E+02  0.51100000000E-03 0. -1.
         11   -1    0    0    0    0 -0.00000000000E+00 -0.00000000000E+00 -0.45593999997E+02  0.45594000000E+02  0.51100000000E-03 0.  1.
    9900012    2    1    2    0    0  0.27309753646E+02  0.13233282956E+02  0.31027098986E+02  0.47787270819E+02  0.19999998970E+02 0.  0.
        -12    1    1    2    0    0 -0.27309753646E+02 -0.13233282956E+02 -0.31027098986E+02  0.43400729181E+02  0.00000000000E+00 0.  1.
         11    1    3    3    0    0  0.89493821814E+01  0.35791619391E+01  0.12682646926E+02  0.15929575478E+02  0.51100000000E-03 0. -1.
        -11    1    3    3    0    0  0.25931368152E+01  0.58570944918E+01  0.13482279375E+02  0.14926545877E+02  0.51100000000E-03 0.  1.
        -12    1    3    3    0    0  0.15767234649E+02  0.37970265253E+01  0.48621726859E+01  0.16931149463E+02  0.00000000000E+00 0.  1.
</event>
<event>
 7    1  0.9175399E-010  0.4778726E+02  0.7816164E-02  0.1312668E+00
        -11   -1    0    0    0    0  0.00000000000E+00  0.00000000000E+00  0.45593999997E+02  0.45594000000E+02  0.51100000000E-03 0.  1.
         11   -1    0    0    0    0 -0.00000000000E+00 -0.00000000000E+00 -0.45593999997E+02  0.45594000000E+02  0.51100000000E-03 0. -1.
    9900012    2    1    2    0    0 -0.61226571463E+01 -0.40228325506E+02 -0.15093676941E+02  0.47787260523E+02  0.19999952028E+02 0.  0.
        -12    1    1    2    0    0  0.61226571463E+01  0.40228325506E+02  0.15093676941E+02  0.43400739477E+02  0.00000000000E+00 0.  1.
         11    1    3    3    0    0 -0.65047842196E+01 -0.34646366675E+02 -0.17058532475E+02  0.39162181655E+02  0.51100000000E-03 0. -1.
        -11    1    3    3    0    0 -0.60299688660E-01  0.50778791534E+00 -0.15138178170E+01  0.15978514523E+01  0.51100000000E-03 0.  1.
         12    1    3    3    0    0  0.44242676194E+00 -0.60897467460E+01  0.34786733504E+01  0.70272274155E+01  0.00000000000E+00 0. -1.
</event>
<event>
 7    1  0.9175399E-010  0.4778723E+02  0.7816164E-02  0.1312668E+00
        -11   -1    0    0    0    0  0.00000000000E+00  0.00000000000E+00  0.45593999997E+02  0.45594000000E+02  0.51100000000E-03 0. -1.
         11   -1    0    0    0    0 -0.00000000000E+00 -0.00000000000E+00 -0.45593999997E+02  0.45594000000E+02  0.51100000000E-03 0.  1.
    9900012    2    1    2    0    0 -0.14178340173E+02  0.23133606297E+02  0.33873853375E+02  0.47787227969E+02  0.19999803603E+02 0.  0.
        -12    1    1    2    0    0  0.14178340173E+02 -0.23133606297E+02 -0.33873853375E+02  0.43400772031E+02  0.00000000000E+00 0.  1.
         11    1    3    3    0    0 -0.71367373264E+01  0.12974139150E+02  0.52197409298E+01  0.15700541455E+02  0.51100000000E-03 0.  1.
        -11    1    3    3    0    0 -0.84668345380E+01  0.71507261485E+01  0.21166058355E+02  0.23891885612E+02  0.51100000000E-03 0. -1.
        -12    1    3    3    0    0  0.14252316913E+01  0.30087409991E+01  0.74880540904E+01  0.81948009027E+01  0.00000000000E+00 0.  1.
</event>
<event>
 7    1  0.9175399E-010  0.4778726E+02  0.7816164E-02  0.1312668E+00
        -11   -1    0    0    0    0  0.00000000000E+00  0.00000000000E+00  0.45593999997E+02  0.45594000000E+02  0.51100000000E-03 0. -1.
         11   -1    0    0    0    0 -0.00000000000E+00 -0.00000000000E+00 -0.45593999997E+02  0.45594000000E+02  0.51100000000E-03 0.  1.
    9900012    2    1    2    0    0  0.80340626938E+01  0.21712329279E+02 -0.36710390337E+02  0.47787260781E+02  0.19999953204E+02 0.  0.
         12    1    1    2    0    0 -0.80340626938E+01 -0.21712329279E+02  0.36710390337E+02  0.43400739219E+02  0.00000000000E+00 0. -1.
         11    1    3    3    0    0  0.57505826776E+01  0.21021678303E+01 -0.11633801645E+02  0.13146621303E+02  0.51100000000E-03 0. -1.
        -11    1    3    3    0    0  0.55225491844E+01  0.17362706317E+02 -0.14287196387E+02  0.23153533230E+02  0.51100000000E-03 0.  1.
        -12    1    3    3    0    0 -0.32390691682E+01  0.22474551316E+01 -0.10789392305E+02  0.11487106248E+02  0.00000000000E+00 0.  1.
</event>
<event>
 7    1  0.9175399E-010  0.4778728E+02  0.7816164E-02  0.1312668E+00
        -11   -1    0    0    0    0  0.00000000000E+00  0.00000000000E+00  0.45593999997E+02  0.45594000000E+02  0.51100000000E-03 0. -1.
         11   -1    0    0    0    0 -0.00000000000E+00 -0.00000000000E+00 -0.45593999997E+02  0.45594000000E+02  0.51100000000E-03 0.  1.
    9900012    2    1    2    0    0  0.41742347818E+01 -0.28436801180E+02  0.32519944820E+02  0.47787277558E+02  0.20000029698E+02 0.  0.
        -12    1    1    2    0    0 -0.41742347818E+01  0.28436801180E+02 -0.32519944820E+02  0.43400722442E+02  0.00000000000E+00 0.  1.
         11    1    3    3    0    0 -0.10955631252E+01 -0.15583211689E+02  0.12153277803E+02  0.19792395174E+02  0.51100000000E-03 0. -1.
        -11    1    3    3    0    0  0.16727320684E+01 -0.14316378532E+01  0.14488780240E+02  0.14655114214E+02  0.51100000000E-03 0.  1.
        -12    1    3    3    0    0  0.35970658386E+01 -0.11421951638E+02  0.58778867767E+01  0.13339768170E+02  0.00000000000E+00 0.  1.
</event>
<event>
 7    1  0.9175399E-010  0.4778728E+02  0.7816164E-02  0.1312668E+00
        -11   -1    0    0    0    0  0.00000000000E+00  0.00000000000E+00  0.45593999997E+02  0.45594000000E+02  0.51100000000E-03 0.  1.
         11   -1    0    0    0    0 -0.00000000000E+00 -0.00000000000E+00 -0.45593999997E+02  0.45594000000E+02  0.51100000000E-03 0. -1.
    9900012    2    1    2    0    0  0.33009781609E+02  0.26176299364E+02  0.10429659634E+02  0.47787284219E+02  0.20000060067E+02 0.  0.
         12    1    1    2    0    0 -0.33009781609E+02 -0.26176299364E+02 -0.10429659634E+02  0.43400715781E+02  0.00000000000E+00 0. -1.
         11    1    3    3    0    0  0.11747820687E+02  0.18171763913E+00  0.47950279478E+01  0.12690019916E+02  0.51100000000E-03 0. -1.
        -11    1    3    3    0    0  0.16541468036E+02  0.20254235414E+02  0.66925982752E+00  0.26159169061E+02  0.51100000000E-03 0.  1.
         12    1    3    3    0    0  0.47204928859E+01  0.57403463104E+01  0.49653718589E+01  0.89380952415E+01  0.00000000000E+00 0. -1.
</event>
<event>
 7    1  0.9175399E-010  0.4778727E+02  0.7816164E-02  0.1312668E+00
        -11   -1    0    0    0    0  0.00000000000E+00  0.00000000000E+00  0.45593999997E+02  0.45594000000E+02  0.51100000000E-03 0. -1.
         11   -1    0    0    0    0 -0.00000000000E+00 -0.00000000000E+00 -0.45593999997E+02  0.45594000000E+02  0.51100000000E-03 0.  1.
    9900012    2    1    2    0    0  0.32539354456E+02  0.25246075824E+02 -0.13691211147E+02  0.47787271946E+02  0.20000004111E+02 0.  0.
         12    1    1    2    0    0 -0.32539354456E+02 -0.25246075824E+02  0.13691211147E+02  0.43400728054E+02  0.00000000000E+00 0. -1.
         11    1    3    3    0    0  0.90044246243E+00  0.55156015365E+00  0.15422886683E+01  0.18691361183E+01  0.51100000000E-03 0. -1.
        -11    1    3    3    0    0  0.86121192049E+01  0.13892927338E+02 -0.14768562235E+00  0.16346370806E+02  0.51100000000E-03 0.  1.
         12    1    3    3    0    0  0.23026792789E+02  0.10801588332E+02 -0.15085814193E+02  0.29571765022E+02  0.00000000000E+00 0. -1.
</event>
<event>
 7    1  0.9175399E-010  0.4778729E+02  0.7816164E-02  0.1312668E+00
        -11   -1    0    0    0    0  0.00000000000E+00  0.00000000000E+00  0.45593999997E+02  0.45594000000E+02  0.51100000000E-03 0. -1.
         11   -1    0    0    0    0 -0.00000000000E+00 -0.00000000000E+00 -0.45593999997E+02  0.45594000000E+02  0.51100000000E-03 0.  1.
    9900012    2    1    2    0    0  0.19341765064E+02  0.27535476678E+02  0.27410129093E+02  0.47787291151E+02  0.20000091674E+02 0.  0.
        -12    1    1    2    0    0 -0.19341765064E+02 -0.27535476678E+02 -0.27410129093E+02  0.43400708849E+02  0.00000000000E+00 0.  1.
         11    1    3    3    0    0 -0.18151277759E+01 -0.15514091042E+01  0.19119716331E+01  0.30589532259E+01  0.51100000000E-03 0. -1.
        -11    1    3    3    0    0  0.10983074787E+02  0.18610026879E+02  0.11409362937E+02  0.24436337596E+02  0.51100000000E-03 0.  1.
         12    1    3    3    0    0  0.10173818053E+02  0.10476858903E+02  0.14088794523E+02  0.20292000330E+02  0.00000000000E+00 0. -1.
</event>
<event>
 7    1  0.9175399E-010  0.4778728E+02  0.7816164E-02  0.1312668E+00
        -11   -1    0    0    0    0  0.00000000000E+00  0.00000000000E+00  0.45593999997E+02  0.45594000000E+02  0.51100000000E-03 0. -1.
         11   -1    0    0    0    0 -0.00000000000E+00 -0.00000000000E+00 -0.45593999997E+02  0.45594000000E+02  0.51100000000E-03 0.  1.
    9900012    2    1    2    0    0  0.29022413529E+02  0.95706880612E+01  0.30817594750E+02  0.47787277619E+02  0.20000029976E+02 0.  0.
        -12    1    1    2    0    0 -0.29022413529E+02 -0.95706880612E+01 -0.30817594750E+02  0.43400722381E+02  0.00000000000E+00 0.  1.
         11    1    3    3    0    0  0.11999563422E+02  0.49028525543E+01  0.18971765980E+02  0.22977279868E+02  0.51100000000E-03 0. -1.
        -11    1    3    3    0    0  0.17544356911E+02  0.14548147548E+01  0.69413330545E+01  0.18923610919E+02  0.51100000000E-03 0.  1.
        -12    1    3    3    0    0 -0.52150680423E+00  0.32130207522E+01  0.49044957158E+01  0.58863868313E+01  0.00000000000E+00 0.  1.
</event>
<event>
 7    1  0.9175399E-010  0.4778727E+02  0.7816164E-02  0.1312668E+00
        -11   -1    0    0    0    0  0.00000000000E+00  0.00000000000E+00  0.45593999997E+02  0.45594000000E+02  0.51100000000E-03 0. -1.
         11   -1    0    0    0    0 -0.00000000000E+00 -0.00000000000E+00 -0.45593999997E+02  0.45594000000E+02  0.51100000000E-03 0.  1.
    9900012    2    1    2    0    0  0.84038115401E+01  0.17691980534E+02 -0.38729746995E+02  0.47787268141E+02  0.19999986760E+02 0.  0.
         12    1    1    2    0    0 -0.84038115401E+01 -0.17691980534E+02  0.38729746995E+02  0.43400731859E+02  0.00000000000E+00 0. -1.
         11    1    3    3    0    0  0.83526131217E+01  0.39881862068E+01 -0.11746434746E+02  0.14954949170E+02  0.51100000000E-03 0. -1.
        -11    1    3    3    0    0  0.47636874111E+01  0.35730513730E+01 -0.16379742146E+02  0.17428579027E+02  0.51100000000E-03 0.  1.
         12    1    3    3    0    0 -0.47124889927E+01  0.10130742954E+02 -0.10603570103E+02  0.15403739943E+02  0.00000000000E+00 0. -1.
</event>
<event>
 7    1  0.9175399E-010  0.4778727E+02  0.7816164E-02  0.1312668E+00
        -11   -1    0    0    0    0  0.00000000000E+00  0.00000000000E+00  0.45593999997E+02  0.45594000000E+02  0.51100000000E-03 0.  1.
         11   -1    0    0    0    0 -0.00000000000E+00 -0.00000000000E+00 -0.45593999997E+02  0.45594000000E+02  0.51100000000E-03 0. -1.
    9900012    2    1    2    0    0  0.10846795121E+02 -0.19916336556E+02 -0.37004191821E+02  0.47787266843E+02  0.19999980845E+02 0.  0.
         12    1    1    2    0    0 -0.10846795121E+02  0.19916336556E+02  0.37004191821E+02  0.43400733157E+02  0.00000000000E+00 0. -1.
         11    1    3    3    0    0  0.17708483369E+01 -0.15532524359E+01 -0.16839576779E+02  0.17003524438E+02  0.51100000000E-03 0. -1.
        -11    1    3    3    0    0  0.22971203862E+01 -0.14913985417E+02 -0.10057027060E+02  0.18134153320E+02  0.51100000000E-03 0.  1.
        -12    1    3    3    0    0  0.67788263983E+01 -0.34490987029E+01 -0.10107587983E+02  0.12649589085E+02  0.00000000000E+00 0.  1.
</event>
<event>
 7    1  0.9175399E-010  0.4778727E+02  0.7816164E-02  0.1312668E+00
        -11   -1    0    0    0    0  0.00000000000E+00  0.00000000000E+00  0.45593999997E+02  0.45594000000E+02  0.51100000000E-03 0. -1.
         11   -1    0    0    0    0 -0.00000000000E+00 -0.00000000000E+00 -0.45593999997E+02  0.45594000000E+02  0.51100000000E-03 0.  1.
    9900012    2    1    2    0    0  0.21486036872E+02  0.18745102214E+02  0.32719941546E+02  0.47787271754E+02  0.20000003236E+02 0.  0.
        -12    1    1    2    0    0 -0.21486036872E+02 -0.18745102214E+02 -0.32719941546E+02  0.43400728246E+02  0.00000000000E+00 0.  1.
         11    1    3    3    0    0 -0.58641734449E+00  0.41517869236E+01  0.35007585016E+00  0.42075852127E+01  0.51100000000E-03 0.  1.
        -11    1    3    3    0    0  0.21245483251E+02  0.85908413121E+01  0.23378399123E+02  0.32737175486E+02  0.51100000000E-03 0. -1.
         12    1    3    3    0    0  0.82697096558E+00  0.60024739788E+01  0.89914665734E+01  0.10842511055E+02  0.00000000000E+00 0. -1.
</event>
<event>
 7    1  0.9175399E-010  0.4778726E+02  0.7816164E-02  0.1312668E+00
        -11   -1    0    0    0    0  0.00000000000E+00  0.00000000000E+00  0.45593999997E+02  0.45594000000E+02  0.51100000000E-03 0.  1.
         11   -1    0    0    0    0 -0.00000000000E+00 -0.00000000000E+00 -0.45593999997E+02  0.45594000000E+02  0.51100000000E-03 0. -1.
    9900012    2    1    2    0    0 -0.29528562074E+02 -0.14998738822E+02 -0.28048630310E+02  0.47787264906E+02  0.19999972014E+02 0.  0.
         12    1    1    2    0    0  0.29528562074E+02  0.14998738822E+02  0.28048630310E+02  0.43400735094E+02  0.00000000000E+00 0. -1.
         11    1    3    3    0    0  0.84945302050E+00 -0.11670345771E+01 -0.44437438084E+01  0.46723012996E+01  0.51100000000E-03 0. -1.
        -11    1    3    3    0    0 -0.24151856953E+02 -0.40785270258E+01 -0.16595541415E+02  0.29586459269E+02  0.51100000000E-03 0.  1.
        -12    1    3    3    0    0 -0.62261581419E+01 -0.97531772189E+01 -0.70093450865E+01  0.13528504338E+02  0.00000000000E+00 0.  1.
</event>
<event>
 7    1  0.9175399E-010  0.4778727E+02  0.7816164E-02  0.1312668E+00
        -11   -1    0    0    0    0  0.00000000000E+00  0.00000000000E+00  0.45593999997E+02  0.45594000000E+02  0.51100000000E-03 0. -1.
         11   -1    0    0    0    0 -0.00000000000E+00 -0.00000000000E+00 -0.45593999997E+02  0.45594000000E+02  0.51100000000E-03 0.  1.
    9900012    2    1    2    0    0 -0.18979630261E+02 -0.22471972563E+02 -0.31912498350E+02  0.47787268823E+02  0.19999989872E+02 0.  0.
         12    1    1    2    0    0  0.18979630261E+02  0.22471972563E+02  0.31912498350E+02  0.43400731177E+02  0.00000000000E+00 0. -1.
         11    1    3    3    0    0  0.44458487469E+00  0.24157437868E+01 -0.36097061202E+00  0.24826948661E+01  0.51100000000E-03 0. -1.
        -11    1    3    3    0    0 -0.11692711623E+02 -0.11733845867E+02 -0.11762580259E+02  0.20316518859E+02  0.51100000000E-03 0.  1.
         12    1    3    3    0    0 -0.77315035126E+01 -0.13153870483E+02 -0.19788947480E+02  0.24988055098E+02  0.00000000000E+00 0. -1.
</event>
<event>
 7    1  0.9175399E-010  0.4778723E+02  0.7816164E-02  0.1312668E+00
        -11   -1    0    0    0    0  0.00000000000E+00  0.00000000000E+00  0.45593999997E+02  0.45594000000E+02  0.51100000000E-03 0. -1.
         11   -1    0    0    0    0 -0.00000000000E+00 -0.00000000000E+00 -0.45593999997E+02  0.45594000000E+02  0.51100000000E-03 0.  1.
    9900012    2    1    2    0    0 -0.10595531974E+02  0.18178098564E+02 -0.37959424202E+02  0.47787234443E+02  0.19999833119E+02 0.  0.
         12    1    1    2    0    0  0.10595531974E+02 -0.18178098564E+02  0.37959424202E+02  0.43400765557E+02  0.00000000000E+00 0. -1.
         11    1    3    3    0    0 -0.68943641378E+01 -0.52647568928E+00 -0.15374951969E+02  0.16858190349E+02  0.51100000000E-03 0. -1.
        -11    1    3    3    0    0 -0.33902831144E+01  0.11972835066E+02 -0.20305814018E+02  0.23815307731E+02  0.51100000000E-03 0.  1.
         12    1    3    3    0    0 -0.31088472174E+00  0.67317391872E+01 -0.22786582141E+01  0.71137363636E+01  0.00000000000E+00 0. -1.
</event>
<event>
 7    1  0.9175399E-010  0.4778727E+02  0.7816164E-02  0.1312668E+00
        -11   -1    0    0    0    0  0.00000000000E+00  0.00000000000E+00  0.45593999997E+02  0.45594000000E+02  0.51100000000E-03 0. -1.
         11   -1    0    0    0    0 -0.00000000000E+00 -0.00000000000E+00 -0.45593999997E+02  0.45594000000E+02  0.51100000000E-03 0.  1.
    9900012    2    1    2    0    0  0.94548252485E+01  0.19933818639E+01  0.42311417002E+02  0.47787270738E+02  0.19999998604E+02 0.  0.
        -12    1    1    2    0    0 -0.94548252485E+01 -0.19933818639E+01 -0.42311417002E+02  0.43400729262E+02  0.00000000000E+00 0.  1.
         11    1    3    3    0    0  0.85610226112E+00  0.56300905193E+01  0.81945390877E+01  0.99790431134E+01  0.51100000000E-03 0. -1.
        -11    1    3    3    0    0  0.28449575401E+01 -0.80013681695E+01  0.23325242462E+02  0.24823025846E+02  0.51100000000E-03 0.  1.
        -12    1    3    3    0    0  0.57537654473E+01  0.43646595140E+01  0.10791635453E+02  0.12985201779E+02  0.00000000000E+00 0.  1.
</event>
<event>
 7    1  0.9175399E-010  0.4778727E+02  0.7816164E-02  0.1312668E+00
        -11   -1    0    0    0    0  0.00000000000E+00  0.00000000000E+00  0.45593999997E+02  0.45594000000E+02  0.51100000000E-03 0. -1.
         11   -1    0    0    0    0 -0.00000000000E+00 -0.00000000000E+00 -0.45593999997E+02  0.45594000000E+02  0.51100000000E-03 0.  1.
    9900012    2    1    2    0    0 -0.22432383785E+01  0.26337108638E+02  0.34423071209E+02  0.47787271420E+02  0.20000001712E+02 0.  0.
        -12    1    1    2    0    0  0.22432383785E+01 -0.26337108638E+02 -0.34423071209E+02  0.43400728580E+02  0.00000000000E+00 0.  1.
         11    1    3    3    0    0 -0.39516676360E+01  0.11060108368E+02  0.59322720694E+01  0.13158021370E+02  0.51100000000E-03 0. -1.
        -11    1    3    3    0    0  0.72542384320E+00  0.35038781986E+01  0.19386970945E+02  0.19714412111E+02  0.51100000000E-03 0.  1.
         12    1    3    3    0    0  0.98300541426E+00  0.11773122072E+02  0.91038281939E+01  0.14914837939E+02  0.00000000000E+00 0. -1.
</event>
<event>
 7    1  0.9175399E-010  0.4778727E+02  0.7816164E-02  0.1312668E+00
        -11   -1    0    0    0    0  0.00000000000E+00  0.00000000000E+00  0.45593999997E+02  0.45594000000E+02  0.51100000000E-03 0. -1.
         11   -1    0    0    0    0 -0.00000000000E+00 -0.00000000000E+00 -0.45593999997E+02  0.45594000000E+02  0.51100000000E-03 0.  1.
    9900012    2    1    2    0    0 -0.39541388010E+02 -0.72383560343E+01 -0.16361795196E+02  0.47787268372E+02  0.19999987816E+02 0.  0.
         12    1    1    2    0    0  0.39541388010E+02  0.72383560343E+01  0.16361795196E+02  0.43400731628E+02  0.00000000000E+00 0. -1.
         11    1    3    3    0    0 -0.20643973485E+02  0.41815810366E+01 -0.87194755036E+01  0.22796677708E+02  0.51100000000E-03 0. -1.
        -11    1    3    3    0    0 -0.67221195663E+01 -0.66981685089E+01  0.66582861650E+00  0.95129217827E+01  0.51100000000E-03 0.  1.
        -12    1    3    3    0    0 -0.12175294959E+02 -0.47217685620E+01 -0.83081483086E+01  0.15477668881E+02  0.00000000000E+00 0.  1.
</event>
<event>
 7    1  0.9175399E-010  0.4778727E+02  0.7816164E-02  0.1312668E+00
        -11   -1    0    0    0    0  0.00000000000E+00  0.00000000000E+00  0.45593999997E+02  0.45594000000E+02  0.51100000000E-03 0. -1.
         11   -1    0    0    0    0 -0.00000000000E+00 -0.00000000000E+00 -0.45593999997E+02  0.45594000000E+02  0.51100000000E-03 0.  1.
    9900012    2    1    2    0    0  0.22748667055E+02  0.36565786408E+02  0.53911566048E+01  0.47787272380E+02  0.20000006088E+02 0.  0.
        -12    1    1    2    0    0 -0.22748667055E+02 -0.36565786408E+02 -0.53911566048E+01  0.43400727620E+02  0.00000000000E+00 0.  1.
         11    1    3    3    0    0  0.14675865733E+02  0.12111119251E+02  0.92347965505E+01  0.21150454182E+02  0.51100000000E-03 0. -1.
        -11    1    3    3    0    0  0.54914381750E+01  0.15347167452E+02 -0.51191942865E+01  0.17085010753E+02  0.51100000000E-03 0.  1.
         12    1    3    3    0    0  0.25813631466E+01  0.91074997051E+01  0.12755543408E+01  0.95518074441E+01  0.00000000000E+00 0. -1.
</event>
<event>
 7    1  0.9175399E-010  0.4778727E+02  0.7816164E-02  0.1312668E+00
        -11   -1    0    0    0    0  0.00000000000E+00  0.00000000000E+00  0.45593999997E+02  0.45594000000E+02  0.51100000000E-03 0. -1.
         11   -1    0    0    0    0 -0.00000000000E+00 -0.00000000000E+00 -0.45593999997E+02  0.45594000000E+02  0.51100000000E-03 0.  1.
    9900012    2    1    2    0    0 -0.39962580120E+02  0.55060457049E+01  0.16009342400E+02  0.47787269670E+02  0.19999993732E+02 0.  0.
        -12    1    1    2    0    0  0.39962580120E+02 -0.55060457049E+01 -0.16009342400E+02  0.43400730330E+02  0.00000000000E+00 0.  1.
         11    1    3    3    0    0 -0.18200342188E+02 -0.75866619312E+00  0.12901916573E+02  0.22322353856E+02  0.51100000000E-03 0. -1.
        -11    1    3    3    0    0 -0.11083917023E+02  0.58532988326E+01 -0.33560454305E+01  0.12976030402E+02  0.51100000000E-03 0.  1.
        -12    1    3    3    0    0 -0.10678320908E+02  0.41141306545E+00  0.64634712575E+01  0.12488885412E+02  0.00000000000E+00 0.  1.
</event>
<event>
 7    1  0.9175399E-010  0.4778727E+02  0.7816164E-02  0.1312668E+00
        -11   -1    0    0    0    0  0.00000000000E+00  0.00000000000E+00  0.45593999997E+02  0.45594000000E+02  0.51100000000E-03 0. -1.
         11   -1    0    0    0    0 -0.00000000000E+00 -0.00000000000E+00 -0.45593999997E+02  0.45594000000E+02  0.51100000000E-03 0.  1.
    9900012    2    1    2    0    0 -0.18702226183E+00  0.25815518326E+02  0.34887641933E+02  0.47787268169E+02  0.19999986891E+02 0.  0.
        -12    1    1    2    0    0  0.18702226183E+00 -0.25815518326E+02 -0.34887641933E+02  0.43400731831E+02  0.00000000000E+00 0.  1.
         11    1    3    3    0    0 -0.51667422633E+01  0.71208336891E+01  0.67074916621E+01  0.11063089202E+02  0.51100000000E-03 0. -1.
        -11    1    3    3    0    0  0.57032200471E+01  0.17802957230E+02  0.29531311540E+02  0.34950970896E+02  0.51100000000E-03 0.  1.
        -12    1    3    3    0    0 -0.72350004563E+00  0.89172740712E+00 -0.13511612693E+01  0.17732080702E+01  0.00000000000E+00 0.  1.
</event>
<event>
 7    1  0.9175399E-010  0.4778727E+02  0.7816164E-02  0.1312668E+00
        -11   -1    0    0    0    0  0.00000000000E+00  0.00000000000E+00  0.45593999997E+02  0.45594000000E+02  0.51100000000E-03 0.  1.
         11   -1    0    0    0    0 -0.00000000000E+00 -0.00000000000E+00 -0.45593999997E+02  0.45594000000E+02  0.51100000000E-03 0. -1.
    9900012    2    1    2    0    0  0.26122061730E+02 -0.38546988328E+01  0.34444196202E+02  0.47787268852E+02  0.19999990005E+02 0.  0.
        -12    1    1    2    0    0 -0.26122061730E+02  0.38546988328E+01 -0.34444196202E+02  0.43400731148E+02  0.00000000000E+00 0.  1.
         11    1    3    3    0    0  0.16120196658E+02 -0.30004958282E+01  0.10196615726E+02  0.19308927677E+02  0.51100000000E-03 0. -1.
        -11    1    3    3    0    0  0.56750241162E+01 -0.52989488837E+01  0.18324750286E+02  0.19901789651E+02  0.51100000000E-03 0.  1.
         12    1    3    3    0    0  0.43268409561E+01  0.44447458791E+01  0.59228301905E+01  0.85765515246E+01  0.00000000000E+00 0. -1.
</event>
<event>
 7    1  0.9175399E-010  0.4778727E+02  0.7816164E-02  0.1312668E+00
        -11   -1    0    0    0    0  0.00000000000E+00  0.00000000000E+00  0.45593999997E+02  0.45594000000E+02  0.51100000000E-03 0.  1.
         11   -1    0    0    0    0 -0.00000000000E+00 -0.00000000000E+00 -0.45593999997E+02  0.45594000000E+02  0.51100000000E-03 0. -1.
    9900012    2    1    2    0    0  0.16140513360E+02 -0.35274318006E+02  0.19463541275E+02  0.47787272803E+02  0.20000008016E+02 0.  0.
        -12    1    1    2    0    0 -0.16140513360E+02  0.35274318006E+02 -0.19463541275E+02  0.43400727197E+02  0.00000000000E+00 0.  1.
         11    1    3    3    0    0  0.19050682346E+02 -0.26716284490E+02  0.12456732852E+02  0.35097842503E+02  0.51100000000E-03 0. -1.
        -11    1    3    3    0    0 -0.10821660841E+01  0.47683107730E+00  0.16435482621E+01  0.20247721997E+01  0.51100000000E-03 0.  1.
         12    1    3    3    0    0 -0.18280029017E+01 -0.90348645933E+01  0.53632601609E+01  0.10664658100E+02  0.00000000000E+00 0. -1.
</event>
<event>
 7    1  0.1477820E-009  0.4778727E+02  0.7816164E-02  0.1312668E+00
        -11   -1    0    0    0    0  0.00000000000E+00  0.00000000000E+00  0.45593999997E+02  0.45594000000E+02  0.51100000000E-03 0. -1.
         11   -1    0    0    0    0 -0.00000000000E+00 -0.00000000000E+00 -0.45593999997E+02  0.45594000000E+02  0.51100000000E-03 0.  1.
    9900012    2    1    2    0    0  0.17751110183E+02  0.23546023155E+02 -0.31845031803E+02  0.47787272245E+02  0.20000005472E+02 0.  0.
         12    1    1    2    0    0 -0.17751110183E+02 -0.23546023155E+02  0.31845031803E+02  0.43400727755E+02  0.00000000000E+00 0. -1.
         11    1    3    3    0    0 -0.15752797535E+01  0.32031868080E+01  0.69686173164E+00  0.36369669455E+01  0.51100000000E-03 0. -1.
        -11    1    3    3    0    0  0.14561202709E+02  0.16578279129E+02 -0.18295029714E+02  0.28663148392E+02  0.51100000000E-03 0.  1.
         12    1    3    3    0    0  0.47651872278E+01  0.37645572180E+01 -0.14246863820E+02  0.15487156907E+02  0.00000000000E+00 0. -1.
</event>
<event>
 7    1  0.9175399E-010  0.4778727E+02  0.7816164E-02  0.1312668E+00
        -11   -1    0    0    0    0  0.00000000000E+00  0.00000000000E+00  0.45593999997E+02  0.45594000000E+02  0.51100000000E-03 0. -1.
         11   -1    0    0    0    0 -0.00000000000E+00 -0.00000000000E+00 -0.45593999997E+02  0.45594000000E+02  0.51100000000E-03 0.  1.
    9900012    2    1    2    0    0  0.34409121287E+02  0.55248187801E+01 -0.25867202240E+02  0.47787269568E+02  0.19999993269E+02 0.  0.
         12    1    1    2    0    0 -0.34409121287E+02 -0.55248187801E+01  0.25867202240E+02  0.43400730432E+02  0.00000000000E+00 0. -1.
         11    1    3    3    0    0  0.51803275472E+01  0.76413681447E+01 -0.52316115550E+01  0.10611129080E+02  0.51100000000E-03 0. -1.
        -11    1    3    3    0    0  0.15048822314E+02 -0.24194030446E+01 -0.16365608299E+02  0.22364116334E+02  0.51100000000E-03 0.  1.
         12    1    3    3    0    0  0.14179971425E+02  0.30285367992E+00 -0.42699823857E+01  0.14812024154E+02  0.00000000000E+00 0. -1.
</event>
<event>
 7    1  0.9175399E-010  0.4778726E+02  0.7816164E-02  0.1312668E+00
        -11   -1    0    0    0    0  0.00000000000E+00  0.00000000000E+00  0.45593999997E+02  0.45594000000E+02  0.51100000000E-03 0. -1.
         11   -1    0    0    0    0 -0.00000000000E+00 -0.00000000000E+00 -0.45593999997E+02  0.45594000000E+02  0.51100000000E-03 0.  1.
    9900012    2    1    2    0    0 -0.74029261601E+01 -0.18265970919E+02 -0.38667496953E+02  0.47787258877E+02  0.19999944525E+02 0.  0.
         12    1    1    2    0    0  0.74029261601E+01  0.18265970919E+02  0.38667496953E+02  0.43400741123E+02  0.00000000000E+00 0. -1.
         11    1    3    3    0    0  0.21857188781E+01 -0.11445192006E+02 -0.82483741343E+01  0.14276045082E+02  0.51100000000E-03 0. -1.
        -11    1    3    3    0    0 -0.39980520429E+01 -0.11258470661E-01 -0.16959572881E+02  0.17424455786E+02  0.51100000000E-03 0.  1.
         12    1    3    3    0    0 -0.55905929954E+01 -0.68095204429E+01 -0.13459549939E+02  0.16086758009E+02  0.00000000000E+00 0. -1.
</event>
<event>
 7    1  0.9175399E-010  0.4778727E+02  0.7816164E-02  0.1312668E+00
        -11   -1    0    0    0    0  0.00000000000E+00  0.00000000000E+00  0.45593999997E+02  0.45594000000E+02  0.51100000000E-03 0. -1.
         11   -1    0    0    0    0 -0.00000000000E+00 -0.00000000000E+00 -0.45593999997E+02  0.45594000000E+02  0.51100000000E-03 0.  1.
    9900012    2    1    2    0    0 -0.20285601829E+02  0.35472999921E+02  0.14621348621E+02  0.47787271890E+02  0.20000003857E+02 0.  0.
        -12    1    1    2    0    0  0.20285601829E+02 -0.35472999921E+02 -0.14621348621E+02  0.43400728110E+02  0.00000000000E+00 0.  1.
         11    1    3    3    0    0 -0.24207820754E+00  0.75753259358E+01  0.90456795438E+01  0.11801206869E+02  0.51100000000E-03 0. -1.
        -11    1    3    3    0    0 -0.15837282768E+02  0.17191238147E+02  0.41390453352E+00  0.23377970651E+02  0.51100000000E-03 0.  1.
        -12    1    3    3    0    0 -0.42062408529E+01  0.10706435838E+02  0.51617645434E+01  0.12608094371E+02  0.00000000000E+00 0.  1.
</event>
<event>
 7    1  0.9175399E-010  0.4778727E+02  0.7816164E-02  0.1312668E+00
        -11   -1    0    0    0    0  0.00000000000E+00  0.00000000000E+00  0.45593999997E+02  0.45594000000E+02  0.51100000000E-03 0. -1.
         11   -1    0    0    0    0 -0.00000000000E+00 -0.00000000000E+00 -0.45593999997E+02  0.45594000000E+02  0.51100000000E-03 0.  1.
    9900012    2    1    2    0    0 -0.15854352203E+02 -0.32301117746E+02 -0.24267272775E+02  0.47787271672E+02  0.20000002864E+02 0.  0.
         12    1    1    2    0    0  0.15854352203E+02  0.32301117746E+02  0.24267272775E+02  0.43400728328E+02  0.00000000000E+00 0. -1.
         11    1    3    3    0    0 -0.58314504757E+01 -0.91528484995E+01  0.12262538354E+01  0.10921728299E+02  0.51100000000E-03 0. -1.
        -11    1    3    3    0    0 -0.12093583869E+01 -0.98204446842E+01 -0.14165251035E+02  0.17278831519E+02  0.51100000000E-03 0.  1.
        -12    1    3    3    0    0 -0.88135433404E+01 -0.13327824562E+02 -0.11328275576E+02  0.19586711855E+02  0.00000000000E+00 0.  1.
</event>
<event>
 7    1  0.9175399E-010  0.4778727E+02  0.7816164E-02  0.1312668E+00
        -11   -1    0    0    0    0  0.00000000000E+00  0.00000000000E+00  0.45593999997E+02  0.45594000000E+02  0.51100000000E-03 0. -1.
         11   -1    0    0    0    0 -0.00000000000E+00 -0.00000000000E+00 -0.45593999997E+02  0.45594000000E+02  0.51100000000E-03 0.  1.
    9900012    2    1    2    0    0 -0.38703947792E+02 -0.51300233911E+01  0.18955486075E+02  0.47787272275E+02  0.20000005613E+02 0.  0.
        -12    1    1    2    0    0  0.38703947792E+02  0.51300233911E+01 -0.18955486075E+02  0.43400727725E+02  0.00000000000E+00 0.  1.
         11    1    3    3    0    0 -0.57665847565E+01  0.37792887635E+01  0.24254184190E+01  0.73088424582E+01  0.51100000000E-03 0. -1.
        -11    1    3    3    0    0 -0.25435080535E+02 -0.11326702054E+02  0.82342626016E+01  0.29035161134E+02  0.51100000000E-03 0.  1.
        -12    1    3    3    0    0 -0.75022825005E+01  0.24173898996E+01  0.82958050546E+01  0.11443268683E+02  0.00000000000E+00 0.  1.
</event>
<event>
 7    1  0.9175399E-010  0.4778727E+02  0.7816164E-02  0.1312668E+00
        -11   -1    0    0    0    0  0.00000000000E+00  0.00000000000E+00  0.45593999997E+02  0.45594000000E+02  0.51100000000E-03 0. -1.
         11   -1    0    0    0    0 -0.00000000000E+00 -0.00000000000E+00 -0.45593999997E+02  0.45594000000E+02  0.51100000000E-03 0.  1.
    9900012    2    1    2    0    0 -0.29590566728E+02 -0.20445308932E+01  0.31683466048E+02  0.47787265367E+02  0.19999974116E+02 0.  0.
        -12    1    1    2    0    0  0.29590566728E+02  0.20445308932E+01 -0.31683466048E+02  0.43400734633E+02  0.00000000000E+00 0.  1.
         11    1    3    3    0    0 -0.21981437105E+02  0.61151517746E+01  0.20289297448E+02  0.30532511354E+02  0.51100000000E-03 0. -1.
        -11    1    3    3    0    0 -0.27329406480E-01 -0.45305600637E+01  0.44686130198E+01  0.63635857792E+01  0.51100000000E-03 0.  1.
         12    1    3    3    0    0 -0.75818002168E+01 -0.36291226042E+01  0.69255555799E+01  0.10891168234E+02  0.00000000000E+00 0. -1.
</event>
<event>
 7    1  0.9175399E-010  0.4778727E+02  0.7816164E-02  0.1312668E+00
        -11   -1    0    0    0    0  0.00000000000E+00  0.00000000000E+00  0.45593999997E+02  0.45594000000E+02  0.51100000000E-03 0. -1.
         11   -1    0    0    0    0 -0.00000000000E+00 -0.00000000000E+00 -0.45593999997E+02  0.45594000000E+02  0.51100000000E-03 0.  1.
    9900012    2    1    2    0    0 -0.70769974958E+00  0.19680049494E+02 -0.38675806497E+02  0.47787271950E+02  0.20000004130E+02 0.  0.
         12    1    1    2    0    0  0.70769974958E+00 -0.19680049494E+02  0.38675806497E+02  0.43400728050E+02  0.00000000000E+00 0. -1.
         11    1    3    3    0    0 -0.12112435549E+01  0.54488387237E+01  0.78675883977E+00  0.56370155330E+01  0.51100000000E-03 0. -1.
        -11    1    3    3    0    0  0.17570237937E+01  0.94255057530E+01 -0.29489189763E+02  0.31008702076E+02  0.51100000000E-03 0.  1.
         12    1    3    3    0    0 -0.12534799884E+01  0.48057050172E+01 -0.99733755746E+01  0.11141554342E+02  0.00000000000E+00 0. -1.
</event>
<event>
 7    1  0.9175399E-010  0.4778727E+02  0.7816164E-02  0.1312668E+00
        -11   -1    0    0    0    0  0.00000000000E+00  0.00000000000E+00  0.45593999997E+02  0.45594000000E+02  0.51100000000E-03 0. -1.
         11   -1    0    0    0    0 -0.00000000000E+00 -0.00000000000E+00 -0.45593999997E+02  0.45594000000E+02  0.51100000000E-03 0.  1.
    9900012    2    1    2    0    0 -0.20466956192E+02 -0.23471784234E+02 -0.30229163370E+02  0.47787271101E+02  0.20000000258E+02 0.  0.
         12    1    1    2    0    0  0.20466956192E+02  0.23471784234E+02  0.30229163370E+02  0.43400728899E+02  0.00000000000E+00 0. -1.
         11    1    3    3    0    0  0.32104074193E+01 -0.56464606148E+01 -0.46994448453E+01  0.80171076697E+01  0.51100000000E-03 0. -1.
        -11    1    3    3    0    0 -0.18571873478E+02 -0.98542323595E+01 -0.17303943372E+02  0.27229521412E+02  0.51100000000E-03 0.  1.
        -12    1    3    3    0    0 -0.51054901336E+01 -0.79710912599E+01 -0.82257751531E+01  0.12540642019E+02  0.00000000000E+00 0.  1.
</event>
<event>
 7    1  0.9175399E-010  0.4778727E+02  0.7816164E-02  0.1312668E+00
        -11   -1    0    0    0    0  0.00000000000E+00  0.00000000000E+00  0.45593999997E+02  0.45594000000E+02  0.51100000000E-03 0.  1.
         11   -1    0    0    0    0 -0.00000000000E+00 -0.00000000000E+00 -0.45593999997E+02  0.45594000000E+02  0.51100000000E-03 0. -1.
    9900012    2    1    2    0    0 -0.10197482027E+02 -0.40066556624E+02 -0.13202485284E+02  0.47787271699E+02  0.20000002986E+02 0.  0.
         12    1    1    2    0    0  0.10197482027E+02  0.40066556624E+02  0.13202485284E+02  0.43400728301E+02  0.00000000000E+00 0. -1.
         11    1    3    3    0    0  0.10405880994E+01  0.79584427623E+00 -0.39860030643E+01  0.41957612414E+01  0.51100000000E-03 0. -1.
        -11    1    3    3    0    0 -0.85283299622E+01 -0.23563748612E+02 -0.63164311635E+01  0.25843373687E+02  0.51100000000E-03 0.  1.
         12    1    3    3    0    0 -0.27097401644E+01 -0.17298652287E+02 -0.29000510560E+01  0.17748136771E+02  0.00000000000E+00 0. -1.
</event>
<event>
 7    1  0.9175399E-010  0.4778727E+02  0.7816164E-02  0.1312668E+00
        -11   -1    0    0    0    0  0.00000000000E+00  0.00000000000E+00  0.45593999997E+02  0.45594000000E+02  0.51100000000E-03 0. -1.
         11   -1    0    0    0    0 -0.00000000000E+00 -0.00000000000E+00 -0.45593999997E+02  0.45594000000E+02  0.51100000000E-03 0.  1.
    9900012    2    1    2    0    0  0.18103774806E+02 -0.15796944942E+01  0.39412957428E+02  0.47787270627E+02  0.19999998096E+02 0.  0.
        -12    1    1    2    0    0 -0.18103774806E+02  0.15796944942E+01 -0.39412957428E+02  0.43400729373E+02  0.00000000000E+00 0.  1.
         11    1    3    3    0    0  0.69664388177E+01 -0.40915870551E+01  0.19984203665E+02  0.21555527153E+02  0.51100000000E-03 0. -1.
        -11    1    3    3    0    0  0.11698412666E+02  0.64697541458E+01  0.12906377853E+02  0.18581850477E+02  0.51100000000E-03 0.  1.
        -12    1    3    3    0    0 -0.56107667727E+00 -0.39578615850E+01  0.65223759092E+01  0.76498929969E+01  0.00000000000E+00 0.  1.
</event>
<event>
 7    1  0.9175399E-010  0.4778729E+02  0.7816164E-02  0.1312668E+00
        -11   -1    0    0    0    0  0.00000000000E+00  0.00000000000E+00  0.45593999997E+02  0.45594000000E+02  0.51100000000E-03 0. -1.
         11   -1    0    0    0    0 -0.00000000000E+00 -0.00000000000E+00 -0.45593999997E+02  0.45594000000E+02  0.51100000000E-03 0.  1.
    9900012    2    1    2    0    0  0.14576388653E+02  0.13396671404E+02 -0.38622268945E+02  0.47787290681E+02  0.20000089532E+02 0.  0.
         12    1    1    2    0    0 -0.14576388653E+02 -0.13396671404E+02  0.38622268945E+02  0.43400709319E+02  0.00000000000E+00 0. -1.
         11    1    3    3    0    0 -0.30389266052E+01 -0.31524905872E+00 -0.38573460336E+01  0.49207291700E+01  0.51100000000E-03 0. -1.
        -11    1    3    3    0    0  0.13635371070E+02  0.34402051152E+01 -0.19398985731E+02  0.23959945807E+02  0.51100000000E-03 0.  1.
        -12    1    3    3    0    0  0.39799441888E+01  0.10271715347E+02 -0.15365937181E+02  0.18906615704E+02  0.00000000000E+00 0.  1.
</event>
<event>
 7    1  0.9175399E-010  0.4778727E+02  0.7816164E-02  0.1312668E+00
        -11   -1    0    0    0    0  0.00000000000E+00  0.00000000000E+00  0.45593999997E+02  0.45594000000E+02  0.51100000000E-03 0. -1.
         11   -1    0    0    0    0 -0.00000000000E+00 -0.00000000000E+00 -0.45593999997E+02  0.45594000000E+02  0.51100000000E-03 0.  1.
    9900012    2    1    2    0    0 -0.17100153784E+01 -0.35985750097E+02  0.24201751262E+02  0.47787272739E+02  0.20000007727E+02 0.  0.
        -12    1    1    2    0    0  0.17100153784E+01  0.35985750097E+02 -0.24201751262E+02  0.43400727261E+02  0.00000000000E+00 0.  1.
         11    1    3    3    0    0  0.64056282615E+00 -0.31177373218E+02  0.23300316742E+02  0.38927415558E+02  0.51100000000E-03 0. -1.
        -11    1    3    3    0    0 -0.20165338862E+01  0.79999354742E+00  0.22039512557E+01  0.30925394078E+01  0.51100000000E-03 0.  1.
         12    1    3    3    0    0 -0.33404431835E+00 -0.56083704264E+01 -0.13025167363E+01  0.57673177730E+01  0.00000000000E+00 0. -1.
</event>
<event>
 7    1  0.9175399E-010  0.4778728E+02  0.7816164E-02  0.1312668E+00
        -11   -1    0    0    0    0  0.00000000000E+00  0.00000000000E+00  0.45593999997E+02  0.45594000000E+02  0.51100000000E-03 0. -1.
         11   -1    0    0    0    0 -0.00000000000E+00 -0.00000000000E+00 -0.45593999997E+02  0.45594000000E+02  0.51100000000E-03 0.  1.
    9900012    2    1    2    0    0  0.22082309608E+02 -0.26265094396E+02  0.26573266402E+02  0.47787284930E+02  0.20000063312E+02 0.  0.
        -12    1    1    2    0    0 -0.22082309608E+02  0.26265094396E+02 -0.26573266402E+02  0.43400715070E+02  0.00000000000E+00 0.  1.
         11    1    3    3    0    0  0.43649976816E+01 -0.10583319057E+02  0.14776021291E+02  0.18691994342E+02  0.51100000000E-03 0. -1.
        -11    1    3    3    0    0  0.19184643425E+02 -0.12836983890E+02  0.87807185460E+01  0.24696957650E+02  0.51100000000E-03 0.  1.
        -12    1    3    3    0    0 -0.14673314986E+01 -0.28447914491E+01  0.30165265649E+01  0.43983329379E+01  0.00000000000E+00 0.  1.
</event>
<event>
 7    1  0.9175399E-010  0.4778727E+02  0.7816164E-02  0.1312668E+00
        -11   -1    0    0    0    0  0.00000000000E+00  0.00000000000E+00  0.45593999997E+02  0.45594000000E+02  0.51100000000E-03 0. -1.
         11   -1    0    0    0    0 -0.00000000000E+00 -0.00000000000E+00 -0.45593999997E+02  0.45594000000E+02  0.51100000000E-03 0.  1.
    9900012    2    1    2    0    0 -0.58865070828E+01 -0.20123655778E+02 -0.38000139265E+02  0.47787273374E+02  0.20000010621E+02 0.  0.
         12    1    1    2    0    0  0.58865070828E+01  0.20123655778E+02  0.38000139265E+02  0.43400726626E+02  0.00000000000E+00 0. -1.
         11    1    3    3    0    0  0.86217563835E+00 -0.32790462366E+01 -0.22384215500E+02  0.22639536101E+02  0.51100000000E-03 0. -1.
        -11    1    3    3    0    0 -0.81681903294E+01 -0.14577131685E+02 -0.11673576207E+02  0.20383436490E+02  0.51100000000E-03 0.  1.
        -12    1    3    3    0    0  0.14195076083E+01 -0.22674778559E+01 -0.39423475587E+01  0.47643007830E+01  0.00000000000E+00 0.  1.
</event>
<event>
 7    1  0.9175399E-010  0.4778727E+02  0.7816164E-02  0.1312668E+00
        -11   -1    0    0    0    0  0.00000000000E+00  0.00000000000E+00  0.45593999997E+02  0.45594000000E+02  0.51100000000E-03 0. -1.
         11   -1    0    0    0    0 -0.00000000000E+00 -0.00000000000E+00 -0.45593999997E+02  0.45594000000E+02  0.51100000000E-03 0.  1.
    9900012    2    1    2    0    0  0.11496307106E+02 -0.40392723605E+02  0.10949246354E+02  0.47787271976E+02  0.20000004249E+02 0.  0.
        -12    1    1    2    0    0 -0.11496307106E+02  0.40392723605E+02 -0.10949246354E+02  0.43400728024E+02  0.00000000000E+00 0.  1.
         11    1    3    3    0    0  0.57956704936E+01 -0.30205992352E+02 -0.19375916795E+00  0.30757589524E+02  0.51100000000E-03 0. -1.
        -11    1    3    3    0    0  0.52658649663E+01 -0.10076305030E+02  0.11700249355E+02  0.16314321688E+02  0.51100000000E-03 0.  1.
        -12    1    3    3    0    0  0.43477164571E+00 -0.11042622211E+00 -0.55724383271E+00  0.71536076460E+00  0.00000000000E+00 0.  1.
</event>
<event>
 7    1  0.9175399E-010  0.4778727E+02  0.7816164E-02  0.1312668E+00
        -11   -1    0    0    0    0  0.00000000000E+00  0.00000000000E+00  0.45593999997E+02  0.45594000000E+02  0.51100000000E-03 0. -1.
         11   -1    0    0    0    0 -0.00000000000E+00 -0.00000000000E+00 -0.45593999997E+02  0.45594000000E+02  0.51100000000E-03 0.  1.
    9900012    2    1    2    0    0  0.18319577319E+02 -0.38618479264E+01  0.39154853591E+02  0.47787270256E+02  0.19999996404E+02 0.  0.
        -12    1    1    2    0    0 -0.18319577319E+02  0.38618479264E+01 -0.39154853591E+02  0.43400729744E+02  0.00000000000E+00 0.  1.
         11    1    3    3    0    0 -0.22221263781E+01  0.29597141224E+00  0.13414913292E+02  0.13600931719E+02  0.51100000000E-03 0. -1.
        -11    1    3    3    0    0  0.31781227188E+00 -0.16811533598E+00  0.47618067043E+01  0.47753607986E+01  0.51100000000E-03 0.  1.
         12    1    3    3    0    0  0.20223891425E+02 -0.39897040026E+01  0.20978133595E+02  0.29410977739E+02  0.00000000000E+00 0. -1.
</event>
<event>
 7    1  0.9175399E-010  0.4778727E+02  0.7816164E-02  0.1312668E+00
        -11   -1    0    0    0    0  0.00000000000E+00  0.00000000000E+00  0.45593999997E+02  0.45594000000E+02  0.51100000000E-03 0. -1.
         11   -1    0    0    0    0 -0.00000000000E+00 -0.00000000000E+00 -0.45593999997E+02  0.45594000000E+02  0.51100000000E-03 0.  1.
    9900012    2    1    2    0    0  0.93114248002E+01  0.23960614932E+02  0.34968694554E+02  0.47787270761E+02  0.19999998706E+02 0.  0.
        -12    1    1    2    0    0 -0.93114248002E+01 -0.23960614932E+02 -0.34968694554E+02  0.43400729239E+02  0.00000000000E+00 0.  1.
         11    1    3    3    0    0  0.13252330184E+02  0.11182217748E+02  0.26223318237E+02  0.31437695028E+02  0.51100000000E-03 0. -1.
        -11    1    3    3    0    0 -0.14772458731E+01  0.48119978921E+01  0.13688211684E+01  0.52164404276E+01  0.51100000000E-03 0.  1.
         12    1    3    3    0    0 -0.24636595104E+01  0.79663992924E+01  0.73765551481E+01  0.11133135305E+02  0.00000000000E+00 0. -1.
</event>
<event>
 7    1  0.9175399E-010  0.4778727E+02  0.7816164E-02  0.1312668E+00
        -11   -1    0    0    0    0  0.00000000000E+00  0.00000000000E+00  0.45593999997E+02  0.45594000000E+02  0.51100000000E-03 0.  1.
         11   -1    0    0    0    0 -0.00000000000E+00 -0.00000000000E+00 -0.45593999997E+02  0.45594000000E+02  0.51100000000E-03 0. -1.
    9900012    2    1    2    0    0 -0.22078289883E+02 -0.15934814081E+02  0.33797253147E+02  0.47787268390E+02  0.19999987897E+02 0.  0.
        -12    1    1    2    0    0  0.22078289883E+02  0.15934814081E+02 -0.33797253147E+02  0.43400731610E+02  0.00000000000E+00 0.  1.
         11    1    3    3    0    0 -0.68925991305E+01  0.39675024742E+01  0.11058723899E+02  0.13621467366E+02  0.51100000000E-03 0. -1.
        -11    1    3    3    0    0 -0.95299706681E+01 -0.15610083362E+02  0.14905622608E+02  0.23593910848E+02  0.51100000000E-03 0.  1.
         12    1    3    3    0    0 -0.56557200847E+01 -0.42922331931E+01  0.78329066397E+01  0.10571890176E+02  0.00000000000E+00 0. -1.
</event>
<event>
 7    1  0.9175399E-010  0.4778727E+02  0.7816164E-02  0.1312668E+00
        -11   -1    0    0    0    0  0.00000000000E+00  0.00000000000E+00  0.45593999997E+02  0.45594000000E+02  0.51100000000E-03 0.  1.
         11   -1    0    0    0    0 -0.00000000000E+00 -0.00000000000E+00 -0.45593999997E+02  0.45594000000E+02  0.51100000000E-03 0. -1.
    9900012    2    1    2    0    0 -0.38358307103E+02  0.18139940644E+02  0.91217516975E+01  0.47787268158E+02  0.19999986841E+02 0.  0.
         12    1    1    2    0    0  0.38358307103E+02 -0.18139940644E+02 -0.91217516975E+01  0.43400731842E+02  0.00000000000E+00 0. -1.
         11    1    3    3    0    0 -0.34219933774E+02  0.82945415625E+01  0.49780400597E+01  0.35560992258E+02  0.51100000000E-03 0. -1.
        -11    1    3    3    0    0 -0.44617037018E+01  0.72796714516E+01  0.17778450424E+01  0.87213043533E+01  0.51100000000E-03 0.  1.
         12    1    3    3    0    0  0.32333037314E+00  0.25657276299E+01  0.23658665954E+01  0.35049715474E+01  0.00000000000E+00 0. -1.
</event>
<event>
 7    1  0.9175399E-010  0.4778727E+02  0.7816164E-02  0.1312668E+00
        -11   -1    0    0    0    0  0.00000000000E+00  0.00000000000E+00  0.45593999997E+02  0.45594000000E+02  0.51100000000E-03 0. -1.
         11   -1    0    0    0    0 -0.00000000000E+00 -0.00000000000E+00 -0.45593999997E+02  0.45594000000E+02  0.51100000000E-03 0.  1.
    9900012    2    1    2    0    0  0.10198879769E+02 -0.36456250644E+02  0.21226114472E+02  0.47787270800E+02  0.19999998884E+02 0.  0.
        -12    1    1    2    0    0 -0.10198879769E+02  0.36456250644E+02 -0.21226114472E+02  0.43400729200E+02  0.00000000000E+00 0.  1.
         11    1    3    3    0    0  0.42457515890E+01  0.27797512751E+00  0.37172690793E+01  0.56499350790E+01  0.51100000000E-03 0. -1.
        -11    1    3    3    0    0  0.26989143788E+00 -0.18511565012E+02  0.45458638161E+01  0.19063466596E+02  0.51100000000E-03 0.  1.
        -12    1    3    3    0    0  0.56832367420E+01 -0.18222660760E+02  0.12962981576E+02  0.23073869125E+02  0.00000000000E+00 0.  1.
</event>
<event>
 7    1  0.9175399E-010  0.4778727E+02  0.7816164E-02  0.1312668E+00
        -11   -1    0    0    0    0  0.00000000000E+00  0.00000000000E+00  0.45593999997E+02  0.45594000000E+02  0.51100000000E-03 0. -1.
         11   -1    0    0    0    0 -0.00000000000E+00 -0.00000000000E+00 -0.45593999997E+02  0.45594000000E+02  0.51100000000E-03 0.  1.
    9900012    2    1    2    0    0  0.13728260047E+02 -0.72968465827E+01  0.40520539215E+02  0.47787271984E+02  0.20000004286E+02 0.  0.
        -12    1    1    2    0    0 -0.13728260047E+02  0.72968465827E+01 -0.40520539215E+02  0.43400728016E+02  0.00000000000E+00 0.  1.
         11    1    3    3    0    0  0.81060405568E+01  0.22078504170E+01  0.50982334548E+01  0.98272316342E+01  0.51100000000E-03 0.  1.
        -11    1    3    3    0    0 -0.60924387808E+00 -0.16229913821E+01  0.15991592102E+02  0.16085282010E+02  0.51100000000E-03 0. -1.
        -12    1    3    3    0    0  0.62314633687E+01 -0.78817056176E+01  0.19430713659E+02  0.21874758340E+02  0.00000000000E+00 0.  1.
</event>
<event>
 7    1  0.1075240E-009  0.4778727E+02  0.7816164E-02  0.1312668E+00
        -11   -1    0    0    0    0  0.00000000000E+00  0.00000000000E+00  0.45593999997E+02  0.45594000000E+02  0.51100000000E-03 0. -1.
         11   -1    0    0    0    0 -0.00000000000E+00 -0.00000000000E+00 -0.45593999997E+02  0.45594000000E+02  0.51100000000E-03 0.  1.
    9900012    2    1    2    0    0  0.14675960057E+02  0.36843080576E+01 -0.40677577465E+02  0.47787271459E+02  0.20000001890E+02 0.  0.
         12    1    1    2    0    0 -0.14675960057E+02 -0.36843080576E+01  0.40677577465E+02  0.43400728541E+02  0.00000000000E+00 0. -1.
         11    1    3    3    0    0  0.13927103298E+02 -0.12057307044E+01 -0.19709110287E+02  0.24163340443E+02  0.51100000000E-03 0. -1.
        -11    1    3    3    0    0  0.12285935031E+01  0.62002280160E+01 -0.21276109805E+02  0.22195159791E+02  0.51100000000E-03 0.  1.
         12    1    3    3    0    0 -0.47973674456E+00 -0.13101892540E+01  0.30764262729E+00  0.14287712243E+01  0.00000000000E+00 0. -1.
</event>
<event>
 7    1  0.9175399E-010  0.4778729E+02  0.7816164E-02  0.1312668E+00
        -11   -1    0    0    0    0  0.00000000000E+00  0.00000000000E+00  0.45593999997E+02  0.45594000000E+02  0.51100000000E-03 0. -1.
         11   -1    0    0    0    0 -0.00000000000E+00 -0.00000000000E+00 -0.45593999997E+02  0.45594000000E+02  0.51100000000E-03 0.  1.
    9900012    2    1    2    0    0 -0.46979449462E+01  0.41669145901E+02 -0.11190763054E+02  0.47787290506E+02  0.20000088733E+02 0.  0.
         12    1    1    2    0    0  0.46979449462E+01 -0.41669145901E+02  0.11190763054E+02  0.43400709494E+02  0.00000000000E+00 0. -1.
         11    1    3    3    0    0 -0.47588950974E+00  0.14669889491E+02 -0.12028122872E+02  0.18976508335E+02  0.51100000000E-03 0.  1.
        -11    1    3    3    0    0  0.27190450029E+01  0.63684661047E+01 -0.85865626188E+00  0.69776684567E+01  0.51100000000E-03 0. -1.
         12    1    3    3    0    0 -0.69411004394E+01  0.20630790305E+02  0.16960160792E+01  0.21833113715E+02  0.00000000000E+00 0. -1.
</event>
<event>
 7    1  0.9175399E-010  0.4778727E+02  0.7816164E-02  0.1312668E+00
        -11   -1    0    0    0    0  0.00000000000E+00  0.00000000000E+00  0.45593999997E+02  0.45594000000E+02  0.51100000000E-03 0. -1.
         11   -1    0    0    0    0 -0.00000000000E+00 -0.00000000000E+00 -0.45593999997E+02  0.45594000000E+02  0.51100000000E-03 0.  1.
    9900012    2    1    2    0    0 -0.27693570308E+02 -0.32108221193E+01  0.33262292338E+02  0.47787270667E+02  0.19999998278E+02 0.  0.
        -12    1    1    2    0    0  0.27693570308E+02  0.32108221193E+01 -0.33262292338E+02  0.43400729333E+02  0.00000000000E+00 0.  1.
         11    1    3    3    0    0 -0.17892802177E+01 -0.52211600443E+01  0.11368673022E+02  0.12637593222E+02  0.51100000000E-03 0. -1.
        -11    1    3    3    0    0 -0.57330145908E+01  0.40558161113E+01  0.38504984294E+01  0.80089599227E+01  0.51100000000E-03 0.  1.
         12    1    3    3    0    0 -0.20171275500E+02 -0.20454781863E+01  0.18043120887E+02  0.27140717522E+02  0.00000000000E+00 0. -1.
</event>
<event>
 7    1  0.9175399E-010  0.4778727E+02  0.7816164E-02  0.1312668E+00
        -11   -1    0    0    0    0  0.00000000000E+00  0.00000000000E+00  0.45593999997E+02  0.45594000000E+02  0.51100000000E-03 0. -1.
         11   -1    0    0    0    0 -0.00000000000E+00 -0.00000000000E+00 -0.45593999997E+02  0.45594000000E+02  0.51100000000E-03 0.  1.
    9900012    2    1    2    0    0  0.42094107598E-01 -0.12478452157E+02 -0.41568134080E+02  0.47787270617E+02  0.19999998049E+02 0.  0.
         12    1    1    2    0    0 -0.42094107598E-01  0.12478452157E+02  0.41568134080E+02  0.43400729383E+02  0.00000000000E+00 0. -1.
         11    1    3    3    0    0  0.18724277774E+01  0.88729110747E+00 -0.72875494800E+00  0.21964415145E+01  0.51100000000E-03 0. -1.
        -11    1    3    3    0    0 -0.35092883257E+01 -0.11236880159E+02 -0.41206262610E+02  0.42854855721E+02  0.51100000000E-03 0.  1.
        -12    1    3    3    0    0  0.16789546558E+01 -0.21288631052E+01  0.36688347873E+00  0.27359733815E+01  0.00000000000E+00 0.  1.
</event>
<event>
 7    1  0.9499652E-010  0.4778727E+02  0.7816164E-02  0.1312668E+00
        -11   -1    0    0    0    0  0.00000000000E+00  0.00000000000E+00  0.45593999997E+02  0.45594000000E+02  0.51100000000E-03 0. -1.
         11   -1    0    0    0    0 -0.00000000000E+00 -0.00000000000E+00 -0.45593999997E+02  0.45594000000E+02  0.51100000000E-03 0.  1.
    9900012    2    1    2    0    0  0.52881326400E+01 -0.32631301476E+02 -0.28122180958E+02  0.47787271381E+02  0.20000001536E+02 0.  0.
         12    1    1    2    0    0 -0.52881326400E+01  0.32631301476E+02  0.28122180958E+02  0.43400728619E+02  0.00000000000E+00 0. -1.
         11    1    3    3    0    0 -0.27660593888E+01 -0.67405285584E+01  0.55379606366E+00  0.73070171842E+01  0.51100000000E-03 0. -1.
        -11    1    3    3    0    0  0.26746605574E+01 -0.14296228982E+02 -0.92840390379E+01  0.17254835650E+02  0.51100000000E-03 0.  1.
         12    1    3    3    0    0  0.53795314714E+01 -0.11594543936E+02 -0.19391937983E+02  0.23225418547E+02  0.00000000000E+00 0. -1.
</event>
<event>
 7    1  0.9175399E-010  0.4778727E+02  0.7816164E-02  0.1312668E+00
        -11   -1    0    0    0    0  0.00000000000E+00  0.00000000000E+00  0.45593999997E+02  0.45594000000E+02  0.51100000000E-03 0. -1.
         11   -1    0    0    0    0 -0.00000000000E+00 -0.00000000000E+00 -0.45593999997E+02  0.45594000000E+02  0.51100000000E-03 0.  1.
    9900012    2    1    2    0    0 -0.19833985382E+02 -0.35604167696E+02  0.14919098675E+02  0.47787271449E+02  0.20000001844E+02 0.  0.
        -12    1    1    2    0    0  0.19833985382E+02  0.35604167696E+02 -0.14919098675E+02  0.43400728551E+02  0.00000000000E+00 0.  1.
         11    1    3    3    0    0 -0.20985866739E+01 -0.45085873999E+01 -0.29728631122E+01  0.57939055666E+01  0.51100000000E-03 0. -1.
        -11    1    3    3    0    0 -0.15262143455E+02 -0.31075000797E+02  0.13920000308E+02  0.37314274832E+02  0.51100000000E-03 0.  1.
        -12    1    3    3    0    0 -0.24732552536E+01 -0.20579499041E-01  0.39719614795E+01  0.46790910506E+01  0.00000000000E+00 0.  1.
</event>
<event>
 7    1  0.9175399E-010  0.4778726E+02  0.7816164E-02  0.1312668E+00
        -11   -1    0    0    0    0  0.00000000000E+00  0.00000000000E+00  0.45593999997E+02  0.45594000000E+02  0.51100000000E-03 0. -1.
         11   -1    0    0    0    0 -0.00000000000E+00 -0.00000000000E+00 -0.45593999997E+02  0.45594000000E+02  0.51100000000E-03 0.  1.
    9900012    2    1    2    0    0 -0.55887776568E+00  0.38385938742E+02  0.20244288795E+02  0.47787264219E+02  0.19999968882E+02 0.  0.
        -12    1    1    2    0    0  0.55887776568E+00 -0.38385938742E+02 -0.20244288795E+02  0.43400735781E+02  0.00000000000E+00 0.  1.
         11    1    3    3    0    0  0.44458173700E+01  0.33571772999E+02  0.12645148086E+02  0.36148706820E+02  0.51100000000E-03 0. -1.
        -11    1    3    3    0    0 -0.10110229362E+01 -0.12060690869E+01  0.16463981262E+01  0.22775857988E+01  0.51100000000E-03 0.  1.
         12    1    3    3    0    0 -0.39936721995E+01  0.60202348299E+01  0.59527425825E+01  0.93609716001E+01  0.00000000000E+00 0. -1.
</event>
<event>
 7    1  0.9175399E-010  0.4778729E+02  0.7816164E-02  0.1312668E+00
        -11   -1    0    0    0    0  0.00000000000E+00  0.00000000000E+00  0.45593999997E+02  0.45594000000E+02  0.51100000000E-03 0.  1.
         11   -1    0    0    0    0 -0.00000000000E+00 -0.00000000000E+00 -0.45593999997E+02  0.45594000000E+02  0.51100000000E-03 0. -1.
    9900012    2    1    2    0    0 -0.33977049620E+02  0.26819541971E+02 -0.31454265570E+01  0.47787292165E+02  0.20000096296E+02 0.  0.
        -12    1    1    2    0    0  0.33977049620E+02 -0.26819541971E+02  0.31454265570E+01  0.43400707835E+02  0.00000000000E+00 0.  1.
         11    1    3    3    0    0 -0.18450477986E+02  0.95731561315E+01 -0.10390314858E+02  0.23238418607E+02  0.51100000000E-03 0. -1.
        -11    1    3    3    0    0 -0.12502018698E+02  0.11640454306E+02  0.54649058537E+01  0.17935045142E+02  0.51100000000E-03 0.  1.
         12    1    3    3    0    0 -0.30245529354E+01  0.56059315329E+01  0.17799824468E+01  0.66138284164E+01  0.00000000000E+00 0. -1.
</event>
<event>
 7    1  0.9175399E-010  0.4778727E+02  0.7816164E-02  0.1312668E+00
        -11   -1    0    0    0    0  0.00000000000E+00  0.00000000000E+00  0.45593999997E+02  0.45594000000E+02  0.51100000000E-03 0. -1.
         11   -1    0    0    0    0 -0.00000000000E+00 -0.00000000000E+00 -0.45593999997E+02  0.45594000000E+02  0.51100000000E-03 0.  1.
    9900012    2    1    2    0    0 -0.30817928308E+01 -0.14014632663E+01  0.43268483100E+02  0.47787272170E+02  0.20000005134E+02 0.  0.
        -12    1    1    2    0    0  0.30817928308E+01  0.14014632663E+01 -0.43268483100E+02  0.43400727830E+02  0.00000000000E+00 0.  1.
         11    1    3    3    0    0 -0.39948643395E+01 -0.34829591419E+01  0.34529761309E+02  0.34934143210E+02  0.51100000000E-03 0. -1.
        -11    1    3    3    0    0 -0.33682058092E+00 -0.64581399344E+00 -0.17755920199E+01  0.19191797988E+01  0.51100000000E-03 0.  1.
        -12    1    3    3    0    0  0.12498920896E+01  0.27273098691E+01  0.10514313811E+02  0.10933949162E+02  0.00000000000E+00 0.  1.
</event>
<event>
 7    1  0.9175399E-010  0.4778728E+02  0.7816164E-02  0.1312668E+00
        -11   -1    0    0    0    0  0.00000000000E+00  0.00000000000E+00  0.45593999997E+02  0.45594000000E+02  0.51100000000E-03 0. -1.
         11   -1    0    0    0    0 -0.00000000000E+00 -0.00000000000E+00 -0.45593999997E+02  0.45594000000E+02  0.51100000000E-03 0.  1.
    9900012    2    1    2    0    0 -0.29841134207E+02 -0.76395005840E+01 -0.30573964864E+02  0.47787278952E+02  0.20000036055E+02 0.  0.
         12    1    1    2    0    0  0.29841134207E+02  0.76395005840E+01  0.30573964864E+02  0.43400721048E+02  0.00000000000E+00 0. -1.
         11    1    3    3    0    0 -0.44808198147E+01  0.36451055204E+01 -0.19810501124E+01  0.61064801871E+01  0.51100000000E-03 0. -1.
        -11    1    3    3    0    0 -0.22178130536E+02 -0.12191611343E+02 -0.19333488431E+02  0.31847898461E+02  0.51100000000E-03 0.  1.
        -12    1    3    3    0    0 -0.31821838564E+01  0.90700523876E+00 -0.92594263207E+01  0.98329003039E+01  0.00000000000E+00 0.  1.
</event>
<event>
 7    1  0.9175399E-010  0.4778728E+02  0.7816164E-02  0.1312668E+00
        -11   -1    0    0    0    0  0.00000000000E+00  0.00000000000E+00  0.45593999997E+02  0.45594000000E+02  0.51100000000E-03 0. -1.
         11   -1    0    0    0    0 -0.00000000000E+00 -0.00000000000E+00 -0.45593999997E+02  0.45594000000E+02  0.51100000000E-03 0.  1.
    9900012    2    1    2    0    0  0.88442131549E+01 -0.38269637791E+02  0.18461781106E+02  0.47787278294E+02  0.20000033052E+02 0.  0.
        -12    1    1    2    0    0 -0.88442131549E+01  0.38269637791E+02 -0.18461781106E+02  0.43400721706E+02  0.00000000000E+00 0.  1.
         11    1    3    3    0    0  0.53896113815E+01 -0.34235688704E+02  0.13466779135E+02  0.37181775542E+02  0.51100000000E-03 0. -1.
        -11    1    3    3    0    0  0.44737847432E+00 -0.76388600703E+00  0.59881615724E+01  0.60532428177E+01  0.51100000000E-03 0.  1.
         12    1    3    3    0    0  0.30072232991E+01 -0.32700630801E+01 -0.99315960096E+00  0.45522599345E+01  0.00000000000E+00 0. -1.
</event>
<event>
 7    1  0.9175399E-010  0.4778729E+02  0.7816164E-02  0.1312668E+00
        -11   -1    0    0    0    0  0.00000000000E+00  0.00000000000E+00  0.45593999997E+02  0.45594000000E+02  0.51100000000E-03 0. -1.
         11   -1    0    0    0    0 -0.00000000000E+00 -0.00000000000E+00 -0.45593999997E+02  0.45594000000E+02  0.51100000000E-03 0.  1.
    9900012    2    1    2    0    0 -0.14005300127E+02  0.20955833599E+02 -0.35331661242E+02  0.47787289411E+02  0.20000083740E+02 0.  0.
         12    1    1    2    0    0  0.14005300127E+02 -0.20955833599E+02  0.35331661242E+02  0.43400710589E+02  0.00000000000E+00 0. -1.
         11    1    3    3    0    0 -0.14899849818E+01  0.13194371025E+02 -0.16352175938E+02  0.21064309629E+02  0.51100000000E-03 0. -1.
        -11    1    3    3    0    0  0.55420622419E-01  0.59551826582E+01 -0.45085078059E+01  0.74695324375E+01  0.51100000000E-03 0.  1.
         12    1    3    3    0    0 -0.12570735768E+02  0.18062799162E+01 -0.14470977498E+02  0.19253447344E+02  0.00000000000E+00 0. -1.
</event>
<event>
 7    1  0.9175399E-010  0.4778727E+02  0.7816164E-02  0.1312668E+00
        -11   -1    0    0    0    0  0.00000000000E+00  0.00000000000E+00  0.45593999997E+02  0.45594000000E+02  0.51100000000E-03 0.  1.
         11   -1    0    0    0    0 -0.00000000000E+00 -0.00000000000E+00 -0.45593999997E+02  0.45594000000E+02  0.51100000000E-03 0. -1.
    9900012    2    1    2    0    0  0.35662835259E+02 -0.18107997803E+02 -0.16848912919E+02  0.47787271093E+02  0.20000000220E+02 0.  0.
         12    1    1    2    0    0 -0.35662835259E+02  0.18107997803E+02  0.16848912919E+02  0.43400728907E+02  0.00000000000E+00 0. -1.
         11    1    3    3    0    0  0.12299961157E+02 -0.17278756711E+02 -0.76332815423E+01  0.22541327940E+02  0.51100000000E-03 0. -1.
        -11    1    3    3    0    0  0.13593210943E+02  0.68713316532E+00 -0.56333441629E+01  0.14730312368E+02  0.51100000000E-03 0.  1.
         12    1    3    3    0    0  0.97696631586E+01 -0.15163742576E+01 -0.35822872135E+01  0.10515630785E+02  0.00000000000E+00 0. -1.
</event>
<event>
 7    1  0.9175399E-010  0.4778727E+02  0.7816164E-02  0.1312668E+00
        -11   -1    0    0    0    0  0.00000000000E+00  0.00000000000E+00  0.45593999997E+02  0.45594000000E+02  0.51100000000E-03 0. -1.
         11   -1    0    0    0    0 -0.00000000000E+00 -0.00000000000E+00 -0.45593999997E+02  0.45594000000E+02  0.51100000000E-03 0.  1.
    9900012    2    1    2    0    0 -0.67385840648E+00 -0.25857783788E+02 -0.34850312687E+02  0.47787270029E+02  0.19999995371E+02 0.  0.
         12    1    1    2    0    0  0.67385840648E+00  0.25857783788E+02  0.34850312687E+02  0.43400729971E+02  0.00000000000E+00 0. -1.
         11    1    3    3    0    0  0.75902139502E+00 -0.11949706642E+02 -0.14452548655E+02  0.18768264842E+02  0.51100000000E-03 0. -1.
        -11    1    3    3    0    0 -0.31949905149E+01 -0.16797895063E+02 -0.18258213169E+02  0.25014787453E+02  0.51100000000E-03 0.  1.
         12    1    3    3    0    0  0.17621107134E+01  0.28898179171E+01 -0.21395508636E+01  0.40042177336E+01  0.00000000000E+00 0. -1.
</event>
<event>
 7    1  0.9175399E-010  0.4778727E+02  0.7816164E-02  0.1312668E+00
        -11   -1    0    0    0    0  0.00000000000E+00  0.00000000000E+00  0.45593999997E+02  0.45594000000E+02  0.51100000000E-03 0. -1.
         11   -1    0    0    0    0 -0.00000000000E+00 -0.00000000000E+00 -0.45593999997E+02  0.45594000000E+02  0.51100000000E-03 0.  1.
    9900012    2    1    2    0    0  0.21975066119E+02 -0.21564666312E+02  0.30588967246E+02  0.47787270959E+02  0.19999999612E+02 0.  0.
        -12    1    1    2    0    0 -0.21975066119E+02  0.21564666312E+02 -0.30588967246E+02  0.43400729041E+02  0.00000000000E+00 0.  1.
         11    1    3    3    0    0  0.21085282670E+02 -0.15785072870E+02  0.22575035793E+02  0.34689910811E+02  0.51100000000E-03 0. -1.
        -11    1    3    3    0    0 -0.31521623189E+01 -0.12916551736E+00  0.39263856044E+01  0.50367961236E+01  0.51100000000E-03 0.  1.
         12    1    3    3    0    0  0.40419457677E+01 -0.56504279249E+01  0.40875458487E+01  0.80605640242E+01  0.00000000000E+00 0. -1.
</event>
<event>
 7    1  0.9175399E-010  0.4778727E+02  0.7816164E-02  0.1312668E+00
        -11   -1    0    0    0    0  0.00000000000E+00  0.00000000000E+00  0.45593999997E+02  0.45594000000E+02  0.51100000000E-03 0. -1.
         11   -1    0    0    0    0 -0.00000000000E+00 -0.00000000000E+00 -0.45593999997E+02  0.45594000000E+02  0.51100000000E-03 0.  1.
    9900012    2    1    2    0    0  0.33041709222E+02 -0.21068573118E+02  0.18654330370E+02  0.47787270016E+02  0.19999995313E+02 0.  0.
        -12    1    1    2    0    0 -0.33041709222E+02  0.21068573118E+02 -0.18654330370E+02  0.43400729984E+02  0.00000000000E+00 0.  1.
         11    1    3    3    0    0  0.23908574713E+02 -0.16467217054E+02  0.16787877946E+02  0.33535384723E+02  0.51100000000E-03 0. -1.
        -11    1    3    3    0    0  0.32315072581E+01  0.29207253872E+01 -0.54977650561E+00  0.43903906903E+01  0.51100000000E-03 0.  1.
        -12    1    3    3    0    0  0.59016272515E+01 -0.75220814515E+01  0.24162289288E+01  0.98614946035E+01  0.00000000000E+00 0.  1.
</event>
<event>
 7    1  0.9175399E-010  0.4778727E+02  0.7816164E-02  0.1312668E+00
        -11   -1    0    0    0    0  0.00000000000E+00  0.00000000000E+00  0.45593999997E+02  0.45594000000E+02  0.51100000000E-03 0. -1.
         11   -1    0    0    0    0 -0.00000000000E+00 -0.00000000000E+00 -0.45593999997E+02  0.45594000000E+02  0.51100000000E-03 0.  1.
    9900012    2    1    2    0    0  0.20691280712E+02 -0.33826028975E+02 -0.17643514448E+02  0.47787274939E+02  0.20000017758E+02 0.  0.
         12    1    1    2    0    0 -0.20691280712E+02  0.33826028975E+02  0.17643514448E+02  0.43400725061E+02  0.00000000000E+00 0. -1.
         11    1    3    3    0    0  0.20562389654E-01 -0.55006516883E+01 -0.89234399347E+01  0.10482622398E+02  0.51100000000E-03 0. -1.
        -11    1    3    3    0    0  0.15876289095E+02 -0.26955484457E+02 -0.76343055945E+01  0.32201511143E+02  0.51100000000E-03 0.  1.
        -12    1    3    3    0    0  0.47944292277E+01 -0.13698928292E+01 -0.10857689188E+01  0.51031413980E+01  0.00000000000E+00 0.  1.
</event>
<event>
 7    1  0.9175399E-010  0.4778727E+02  0.7816164E-02  0.1312668E+00
        -11   -1    0    0    0    0  0.00000000000E+00  0.00000000000E+00  0.45593999997E+02  0.45594000000E+02  0.51100000000E-03 0. -1.
         11   -1    0    0    0    0 -0.00000000000E+00 -0.00000000000E+00 -0.45593999997E+02  0.45594000000E+02  0.51100000000E-03 0.  1.
    9900012    2    1    2    0    0  0.36001615329E+02 -0.18260300633E+02 -0.15939512765E+02  0.47787274745E+02  0.20000016871E+02 0.  0.
         12    1    1    2    0    0 -0.36001615329E+02  0.18260300633E+02  0.15939512765E+02  0.43400725255E+02  0.00000000000E+00 0. -1.
         11    1    3    3    0    0  0.30707488479E+02 -0.98932083489E+01 -0.91540949524E+01  0.33535397341E+02  0.51100000000E-03 0. -1.
        -11    1    3    3    0    0  0.23578549510E+01 -0.78846940659E+01 -0.17664848627E+01  0.84171461621E+01  0.51100000000E-03 0.  1.
         12    1    3    3    0    0  0.29362718983E+01 -0.48239821826E+00 -0.50189329504E+01  0.58347312416E+01  0.00000000000E+00 0. -1.
</event>
<event>
 7    1  0.9175399E-010  0.4778728E+02  0.7816164E-02  0.1312668E+00
        -11   -1    0    0    0    0  0.00000000000E+00  0.00000000000E+00  0.45593999997E+02  0.45594000000E+02  0.51100000000E-03 0. -1.
         11   -1    0    0    0    0 -0.00000000000E+00 -0.00000000000E+00 -0.45593999997E+02  0.45594000000E+02  0.51100000000E-03 0.  1.
    9900012    2    1    2    0    0 -0.22401048627E+02 -0.26651919778E+02  0.25913144107E+02  0.47787275986E+02  0.20000022530E+02 0.  0.
        -12    1    1    2    0    0  0.22401048627E+02  0.26651919778E+02 -0.25913144107E+02  0.43400724014E+02  0.00000000000E+00 0.  1.
         11    1    3    3    0    0 -0.15198354964E+02 -0.12101509177E+02  0.23972529180E+02  0.30856420297E+02  0.51100000000E-03 0. -1.
        -11    1    3    3    0    0 -0.12672166765E+01 -0.57165380316E+01 -0.87914338011E+00  0.59209406783E+01  0.51100000000E-03 0.  1.
         12    1    3    3    0    0 -0.59354769865E+01 -0.88338725701E+01  0.28197583063E+01  0.11009915011E+02  0.00000000000E+00 0. -1.
</event>
<event>
 7    1  0.9175399E-010  0.4778727E+02  0.7816164E-02  0.1312668E+00
        -11   -1    0    0    0    0  0.00000000000E+00  0.00000000000E+00  0.45593999997E+02  0.45594000000E+02  0.51100000000E-03 0. -1.
         11   -1    0    0    0    0 -0.00000000000E+00 -0.00000000000E+00 -0.45593999997E+02  0.45594000000E+02  0.51100000000E-03 0.  1.
    9900012    2    1    2    0    0  0.12537520630E+02 -0.29084960347E+02  0.29673205930E+02  0.47787268531E+02  0.19999988538E+02 0.  0.
        -12    1    1    2    0    0 -0.12537520630E+02  0.29084960347E+02 -0.29673205930E+02  0.43400731469E+02  0.00000000000E+00 0.  1.
         11    1    3    3    0    0  0.13185442421E+02 -0.24286349212E+02  0.22138417850E+02  0.35408928182E+02  0.51100000000E-03 0. -1.
        -11    1    3    3    0    0 -0.39447806566E+01  0.27875587735E-01  0.35229603208E+01  0.52889811079E+01  0.51100000000E-03 0.  1.
        -12    1    3    3    0    0  0.32968588665E+01 -0.48264867225E+01  0.40118277595E+01  0.70893592404E+01  0.00000000000E+00 0.  1.
</event>
<event>
 7    1  0.9175399E-010  0.4778727E+02  0.7816164E-02  0.1312668E+00
        -11   -1    0    0    0    0  0.00000000000E+00  0.00000000000E+00  0.45593999997E+02  0.45594000000E+02  0.51100000000E-03 0.  1.
         11   -1    0    0    0    0 -0.00000000000E+00 -0.00000000000E+00 -0.45593999997E+02  0.45594000000E+02  0.51100000000E-03 0. -1.
    9900012    2    1    2    0    0  0.12336574451E+02  0.41505128986E+02 -0.29590836941E+01  0.47787274457E+02  0.20000015560E+02 0.  0.
        -12    1    1    2    0    0 -0.12336574451E+02 -0.41505128986E+02  0.29590836941E+01  0.43400725543E+02  0.00000000000E+00 0.  1.
         11    1    3    3    0    0  0.36037490259E+00  0.17107033971E+02 -0.82970435976E+01  0.19016345971E+02  0.51100000000E-03 0. -1.
        -11    1    3    3    0    0  0.40360388212E+01  0.63868532299E+01  0.50453280733E+01  0.90849787658E+01  0.51100000000E-03 0.  1.
         12    1    3    3    0    0  0.79401607268E+01  0.18011241785E+02  0.29263183022E+00  0.19685949721E+02  0.00000000000E+00 0. -1.
</event>
<event>
 7    1  0.9175399E-010  0.4778728E+02  0.7816164E-02  0.1312668E+00
        -11   -1    0    0    0    0  0.00000000000E+00  0.00000000000E+00  0.45593999997E+02  0.45594000000E+02  0.51100000000E-03 0. -1.
         11   -1    0    0    0    0 -0.00000000000E+00 -0.00000000000E+00 -0.45593999997E+02  0.45594000000E+02  0.51100000000E-03 0.  1.
    9900012    2    1    2    0    0  0.35405788178E+00  0.31611380932E+02 -0.29735806165E+02  0.47787275010E+02  0.20000018080E+02 0.  0.
         12    1    1    2    0    0 -0.35405788178E+00 -0.31611380932E+02  0.29735806165E+02  0.43400724990E+02  0.00000000000E+00 0. -1.
         11    1    3    3    0    0  0.66906029454E+01  0.13098181250E+02 -0.67410857599E+01  0.16179269369E+02  0.51100000000E-03 0. -1.
        -11    1    3    3    0    0 -0.63119130563E+01  0.19147580846E+02 -0.23374625257E+02  0.30868158430E+02  0.51100000000E-03 0.  1.
         12    1    3    3    0    0 -0.24632007257E-01 -0.63438116477E+00  0.37990485238E+00  0.73984721048E+00  0.00000000000E+00 0. -1.
</event>
<event>
 7    1  0.9175399E-010  0.4778727E+02  0.7816164E-02  0.1312668E+00
        -11   -1    0    0    0    0  0.00000000000E+00  0.00000000000E+00  0.45593999997E+02  0.45594000000E+02  0.51100000000E-03 0. -1.
         11   -1    0    0    0    0 -0.00000000000E+00 -0.00000000000E+00 -0.45593999997E+02  0.45594000000E+02  0.51100000000E-03 0.  1.
    9900012    2    1    2    0    0  0.64424010183E+01  0.29293521190E+02  0.31368908401E+02  0.47787270411E+02  0.19999997111E+02 0.  0.
        -12    1    1    2    0    0 -0.64424010183E+01 -0.29293521190E+02 -0.31368908401E+02  0.43400729589E+02  0.00000000000E+00 0.  1.
         11    1    3    3    0    0  0.69922159066E+01  0.17026336321E+02  0.10540124750E+02  0.21210408808E+02  0.51100000000E-03 0. -1.
        -11    1    3    3    0    0 -0.37739496868E+01  0.12588833015E+02  0.17919429007E+02  0.22222226467E+02  0.51100000000E-03 0.  1.
         12    1    3    3    0    0  0.32241347985E+01 -0.32164814578E+00  0.29093546435E+01  0.43546351363E+01  0.00000000000E+00 0. -1.
</event>
<event>
 7    1  0.9175399E-010  0.4778727E+02  0.7816164E-02  0.1312668E+00
        -11   -1    0    0    0    0  0.00000000000E+00  0.00000000000E+00  0.45593999997E+02  0.45594000000E+02  0.51100000000E-03 0. -1.
         11   -1    0    0    0    0 -0.00000000000E+00 -0.00000000000E+00 -0.45593999997E+02  0.45594000000E+02  0.51100000000E-03 0.  1.
    9900012    2    1    2    0    0  0.18833822595E+01  0.16912228860E+01  0.43326851294E+02  0.47787269515E+02  0.19999993025E+02 0.  0.
        -12    1    1    2    0    0 -0.18833822595E+01 -0.16912228860E+01 -0.43326851294E+02  0.43400730485E+02  0.00000000000E+00 0.  1.
         11    1    3    3    0    0  0.31936463235E+01  0.58572453189E+01  0.21029179948E+02  0.22062028672E+02  0.51100000000E-03 0. -1.
        -11    1    3    3    0    0 -0.15054129383E+01 -0.71931838197E+01  0.70676706625E+01  0.10196084073E+02  0.51100000000E-03 0.  1.
        -12    1    3    3    0    0  0.19514887432E+00  0.30271613867E+01  0.15230000684E+02  0.15529156769E+02  0.00000000000E+00 0.  1.
</event>
<event>
 7    1  0.9175399E-010  0.4778727E+02  0.7816164E-02  0.1312668E+00
        -11   -1    0    0    0    0  0.00000000000E+00  0.00000000000E+00  0.45593999997E+02  0.45594000000E+02  0.51100000000E-03 0. -1.
         11   -1    0    0    0    0 -0.00000000000E+00 -0.00000000000E+00 -0.45593999997E+02  0.45594000000E+02  0.51100000000E-03 0.  1.
    9900012    2    1    2    0    0 -0.14657270757E+02 -0.12807125735E+02 -0.38791305583E+02  0.47787269079E+02  0.19999991039E+02 0.  0.
         12    1    1    2    0    0  0.14657270757E+02  0.12807125735E+02  0.38791305583E+02  0.43400730921E+02  0.00000000000E+00 0. -1.
         11    1    3    3    0    0  0.38705802101E+01 -0.37429620038E+01 -0.12426612017E+02  0.13542962829E+02  0.51100000000E-03 0. -1.
        -11    1    3    3    0    0 -0.12617210643E+02 -0.88181455332E+01 -0.15334575616E+02  0.21727929138E+02  0.51100000000E-03 0.  1.
         12    1    3    3    0    0 -0.59106403241E+01 -0.24601819768E+00 -0.11030117951E+02  0.12516377112E+02  0.00000000000E+00 0. -1.
</event>
<event>
 7    1  0.9175399E-010  0.4778727E+02  0.7816164E-02  0.1312668E+00
        -11   -1    0    0    0    0  0.00000000000E+00  0.00000000000E+00  0.45593999997E+02  0.45594000000E+02  0.51100000000E-03 0. -1.
         11   -1    0    0    0    0 -0.00000000000E+00 -0.00000000000E+00 -0.45593999997E+02  0.45594000000E+02  0.51100000000E-03 0.  1.
    9900012    2    1    2    0    0  0.13512657682E+02  0.13541665166E+02 -0.38957089359E+02  0.47787269310E+02  0.19999992093E+02 0.  0.
         12    1    1    2    0    0 -0.13512657682E+02 -0.13541665166E+02  0.38957089359E+02  0.43400730690E+02  0.00000000000E+00 0. -1.
         11    1    3    3    0    0  0.26146624150E+01  0.98472100661E+01 -0.31864137732E+02  0.33453359761E+02  0.51100000000E-03 0. -1.
        -11    1    3    3    0    0  0.63904013809E+01  0.44872518948E+01 -0.37250755387E+01  0.86515228374E+01  0.51100000000E-03 0.  1.
        -12    1    3    3    0    0  0.45075938859E+01 -0.79279679538E+00 -0.33678760887E+01  0.56823867123E+01  0.00000000000E+00 0.  1.
</event>
<event>
 7    1  0.9175399E-010  0.4778727E+02  0.7816164E-02  0.1312668E+00
        -11   -1    0    0    0    0  0.00000000000E+00  0.00000000000E+00  0.45593999997E+02  0.45594000000E+02  0.51100000000E-03 0. -1.
         11   -1    0    0    0    0 -0.00000000000E+00 -0.00000000000E+00 -0.45593999997E+02  0.45594000000E+02  0.51100000000E-03 0.  1.
    9900012    2    1    2    0    0 -0.20497710384E+02 -0.22756730221E+02  0.30750584767E+02  0.47787269996E+02  0.19999995221E+02 0.  0.
        -12    1    1    2    0    0  0.20497710384E+02  0.22756730221E+02 -0.30750584767E+02  0.43400730004E+02  0.00000000000E+00 0.  1.
         11    1    3    3    0    0 -0.94177046907E+01 -0.19076079783E+02  0.20790503745E+02  0.29746176692E+02  0.51100000000E-03 0. -1.
        -11    1    3    3    0    0 -0.56712283400E-01 -0.48160528062E+00 -0.16471438656E+01  0.17170448755E+01  0.51100000000E-03 0.  1.
         12    1    3    3    0    0 -0.11023293410E+02 -0.31990451573E+01  0.11607224888E+02  0.16324048429E+02  0.00000000000E+00 0. -1.
</event>
<event>
 7    1  0.9175399E-010  0.4778727E+02  0.7816164E-02  0.1312668E+00
        -11   -1    0    0    0    0  0.00000000000E+00  0.00000000000E+00  0.45593999997E+02  0.45594000000E+02  0.51100000000E-03 0. -1.
         11   -1    0    0    0    0 -0.00000000000E+00 -0.00000000000E+00 -0.45593999997E+02  0.45594000000E+02  0.51100000000E-03 0.  1.
    9900012    2    1    2    0    0 -0.16465496620E+01  0.13146787640E+02 -0.41328852240E+02  0.47787272143E+02  0.20000005007E+02 0.  0.
         12    1    1    2    0    0  0.16465496620E+01 -0.13146787640E+02  0.41328852240E+02  0.43400727857E+02  0.00000000000E+00 0. -1.
         11    1    3    3    0    0  0.27818767531E+01 -0.18487384129E+01 -0.15773295946E+01  0.36938653062E+01  0.51100000000E-03 0. -1.
        -11    1    3    3    0    0 -0.57938920575E+01  0.16230576989E+02 -0.36207150279E+02  0.40099358425E+02  0.51100000000E-03 0.  1.
        -12    1    3    3    0    0  0.13654656424E+01 -0.12350509353E+01 -0.35443723670E+01  0.39940484110E+01  0.00000000000E+00 0.  1.
</event>
<event>
 7    1  0.9175399E-010  0.4778727E+02  0.7816164E-02  0.1312668E+00
        -11   -1    0    0    0    0  0.00000000000E+00  0.00000000000E+00  0.45593999997E+02  0.45594000000E+02  0.51100000000E-03 0. -1.
         11   -1    0    0    0    0 -0.00000000000E+00 -0.00000000000E+00 -0.45593999997E+02  0.45594000000E+02  0.51100000000E-03 0.  1.
    9900012    2    1    2    0    0  0.76273980515E+01 -0.28337378779E+02 -0.31975598936E+02  0.47787272305E+02  0.20000005749E+02 0.  0.
         12    1    1    2    0    0 -0.76273980515E+01  0.28337378779E+02  0.31975598936E+02  0.43400727695E+02  0.00000000000E+00 0. -1.
         11    1    3    3    0    0 -0.33130112180E+01 -0.14993949025E+02 -0.16354467597E+02  0.22433527617E+02  0.51100000000E-03 0.  1.
        -11    1    3    3    0    0  0.81122054164E+01 -0.25001002667E+01 -0.46854094285E+01  0.96959496614E+01  0.51100000000E-03 0. -1.
         12    1    3    3    0    0  0.28282038531E+01 -0.10843329487E+02 -0.10935721910E+02  0.15657795027E+02  0.00000000000E+00 0. -1.
</event>
<event>
 7    1  0.9175399E-010  0.4778727E+02  0.7816164E-02  0.1312668E+00
        -11   -1    0    0    0    0  0.00000000000E+00  0.00000000000E+00  0.45593999997E+02  0.45594000000E+02  0.51100000000E-03 0. -1.
         11   -1    0    0    0    0 -0.00000000000E+00 -0.00000000000E+00 -0.45593999997E+02  0.45594000000E+02  0.51100000000E-03 0.  1.
    9900012    2    1    2    0    0  0.34889397260E+01  0.21037412318E+02  0.37800501808E+02  0.47787270117E+02  0.19999995770E+02 0.  0.
        -12    1    1    2    0    0 -0.34889397260E+01 -0.21037412318E+02 -0.37800501808E+02  0.43400729883E+02  0.00000000000E+00 0.  1.
         11    1    3    3    0    0 -0.51387485868E+01  0.12810955773E+02  0.11327110995E+02  0.17855832902E+02  0.51100000000E-03 0. -1.
        -11    1    3    3    0    0  0.19241270929E+01  0.31142398602E+00  0.57347930591E+00  0.20317796987E+01  0.51100000000E-03 0.  1.
         12    1    3    3    0    0  0.67035612199E+01  0.79150325581E+01  0.25899911507E+02  0.27899657516E+02  0.00000000000E+00 0. -1.
</event>
<event>
 7    1  0.9175399E-010  0.4778727E+02  0.7816164E-02  0.1312668E+00
        -11   -1    0    0    0    0  0.00000000000E+00  0.00000000000E+00  0.45593999997E+02  0.45594000000E+02  0.51100000000E-03 0. -1.
         11   -1    0    0    0    0 -0.00000000000E+00 -0.00000000000E+00 -0.45593999997E+02  0.45594000000E+02  0.51100000000E-03 0.  1.
    9900012    2    1    2    0    0 -0.16321731970E+02  0.38354467478E+02  0.12089648671E+02  0.47787265962E+02  0.19999976827E+02 0.  0.
        -12    1    1    2    0    0  0.16321731970E+02 -0.38354467478E+02 -0.12089648671E+02  0.43400734038E+02  0.00000000000E+00 0.  1.
         11    1    3    3    0    0 -0.95106755208E+01  0.43362824930E+01  0.35014166958E+01  0.11023439294E+02  0.51100000000E-03 0. -1.
        -11    1    3    3    0    0 -0.18039343763E+01  0.19873813026E+02  0.86738545882E+01  0.21759098720E+02  0.51100000000E-03 0.  1.
         12    1    3    3    0    0 -0.50071220730E+01  0.14144371959E+02 -0.85622612760E-01  0.15004727948E+02  0.00000000000E+00 0. -1.
</event>
<event>
 7    1  0.9175399E-010  0.4778727E+02  0.7816164E-02  0.1312668E+00
        -11   -1    0    0    0    0  0.00000000000E+00  0.00000000000E+00  0.45593999997E+02  0.45594000000E+02  0.51100000000E-03 0. -1.
         11   -1    0    0    0    0 -0.00000000000E+00 -0.00000000000E+00 -0.45593999997E+02  0.45594000000E+02  0.51100000000E-03 0.  1.
    9900012    2    1    2    0    0  0.30161957561E+02  0.23222478425E+02 -0.20846973185E+02  0.47787268680E+02  0.19999989221E+02 0.  0.
         12    1    1    2    0    0 -0.30161957561E+02 -0.23222478425E+02  0.20846973185E+02  0.43400731320E+02  0.00000000000E+00 0. -1.
         11    1    3    3    0    0  0.76535414409E+01  0.92738573960E+01  0.11418701982E+00  0.12024731453E+02  0.51100000000E-03 0. -1.
        -11    1    3    3    0    0  0.21112170680E+02  0.11341365173E+02 -0.22093503283E+02  0.32595600966E+02  0.51100000000E-03 0.  1.
        -12    1    3    3    0    0  0.13962454401E+01  0.26072558567E+01  0.11323430782E+01  0.31669362605E+01  0.00000000000E+00 0.  1.
</event>
<event>
 7    1  0.9175399E-010  0.4778727E+02  0.7816164E-02  0.1312668E+00
        -11   -1    0    0    0    0  0.00000000000E+00  0.00000000000E+00  0.45593999997E+02  0.45594000000E+02  0.51100000000E-03 0. -1.
         11   -1    0    0    0    0 -0.00000000000E+00 -0.00000000000E+00 -0.45593999997E+02  0.45594000000E+02  0.51100000000E-03 0.  1.
    9900012    2    1    2    0    0 -0.26336930415E+02 -0.15815303094E+02 -0.30657222791E+02  0.47787273913E+02  0.20000013080E+02 0.  0.
         12    1    1    2    0    0  0.26336930415E+02  0.15815303094E+02  0.30657222791E+02  0.43400726087E+02  0.00000000000E+00 0. -1.
         11    1    3    3    0    0 -0.15029761108E+02 -0.95937002337E+01 -0.59157219117E+01  0.18786393191E+02  0.51100000000E-03 0. -1.
        -11    1    3    3    0    0 -0.19844852439E+01  0.47065258595E+00 -0.10572444043E+02  0.10767370563E+02  0.51100000000E-03 0.  1.
         12    1    3    3    0    0 -0.93226840624E+01 -0.66922554465E+01 -0.14169056836E+02  0.18233510159E+02  0.00000000000E+00 0. -1.
</event>
<event>
 7    1  0.9175399E-010  0.4778728E+02  0.7816164E-02  0.1312668E+00
        -11   -1    0    0    0    0  0.00000000000E+00  0.00000000000E+00  0.45593999997E+02  0.45594000000E+02  0.51100000000E-03 0. -1.
         11   -1    0    0    0    0 -0.00000000000E+00 -0.00000000000E+00 -0.45593999997E+02  0.45594000000E+02  0.51100000000E-03 0.  1.
    9900012    2    1    2    0    0 -0.65802122690E+01 -0.36502197185E+02  0.22536928340E+02  0.47787277289E+02  0.20000028473E+02 0.  0.
        -12    1    1    2    0    0  0.65802122690E+01  0.36502197185E+02 -0.22536928340E+02  0.43400722711E+02  0.00000000000E+00 0.  1.
         11    1    3    3    0    0 -0.47493990240E+01 -0.10136685226E+02  0.72561490615E+01  0.13340197822E+02  0.51100000000E-03 0. -1.
        -11    1    3    3    0    0 -0.30916483518E+01 -0.24509862086E+02  0.67264456514E+01  0.25603450947E+02  0.51100000000E-03 0.  1.
        -12    1    3    3    0    0  0.12608351068E+01 -0.18556498726E+01  0.85543336266E+01  0.88436285207E+01  0.00000000000E+00 0.  1.
</event>
<event>
 7    1  0.9175399E-010  0.4778727E+02  0.7816164E-02  0.1312668E+00
        -11   -1    0    0    0    0  0.00000000000E+00  0.00000000000E+00  0.45593999997E+02  0.45594000000E+02  0.51100000000E-03 0. -1.
         11   -1    0    0    0    0 -0.00000000000E+00 -0.00000000000E+00 -0.45593999997E+02  0.45594000000E+02  0.51100000000E-03 0.  1.
    9900012    2    1    2    0    0  0.13195096828E+02 -0.40469124910E+01  0.41147724308E+02  0.47787270782E+02  0.19999998802E+02 0.  0.
        -12    1    1    2    0    0 -0.13195096828E+02  0.40469124910E+01 -0.41147724308E+02  0.43400729218E+02  0.00000000000E+00 0.  1.
         11    1    3    3    0    0  0.56329614538E+01  0.35106294086E+01  0.11350835880E+02  0.13149001826E+02  0.51100000000E-03 0. -1.
        -11    1    3    3    0    0  0.32761493598E+01 -0.50383827595E+01  0.28984279179E+02  0.29600792139E+02  0.51100000000E-03 0.  1.
        -12    1    3    3    0    0  0.42859860139E+01 -0.25191591402E+01  0.81260924820E+00  0.50374768164E+01  0.00000000000E+00 0.  1.
</event>
<event>
 7    1  0.9175399E-010  0.4778727E+02  0.7816164E-02  0.1312668E+00
        -11   -1    0    0    0    0  0.00000000000E+00  0.00000000000E+00  0.45593999997E+02  0.45594000000E+02  0.51100000000E-03 0. -1.
         11   -1    0    0    0    0 -0.00000000000E+00 -0.00000000000E+00 -0.45593999997E+02  0.45594000000E+02  0.51100000000E-03 0.  1.
    9900012    2    1    2    0    0 -0.24778715303E+02  0.32827189985E+02 -0.13856914864E+02  0.47787271620E+02  0.20000002624E+02 0.  0.
         12    1    1    2    0    0  0.24778715303E+02 -0.32827189985E+02  0.13856914864E+02  0.43400728380E+02  0.00000000000E+00 0. -1.
         11    1    3    3    0    0 -0.17630321258E+02  0.82433337731E+01 -0.82960913078E+01  0.21156698953E+02  0.51100000000E-03 0. -1.
        -11    1    3    3    0    0 -0.26821108014E+01  0.17183921714E+02 -0.33988182171E+01  0.17720972021E+02  0.51100000000E-03 0.  1.
         12    1    3    3    0    0 -0.44662832441E+01  0.73999344976E+01 -0.21620053392E+01  0.89096006461E+01  0.00000000000E+00 0. -1.
</event>
<event>
 7    1  0.9175399E-010  0.4778726E+02  0.7816164E-02  0.1312668E+00
        -11   -1    0    0    0    0  0.00000000000E+00  0.00000000000E+00  0.45593999997E+02  0.45594000000E+02  0.51100000000E-03 0. -1.
         11   -1    0    0    0    0 -0.00000000000E+00 -0.00000000000E+00 -0.45593999997E+02  0.45594000000E+02  0.51100000000E-03 0.  1.
    9900012    2    1    2    0    0  0.62576302955E+01  0.34103463446E+01  0.42811628141E+02  0.47787263794E+02  0.19999966944E+02 0.  0.
        -12    1    1    2    0    0 -0.62576302955E+01 -0.34103463446E+01 -0.42811628141E+02  0.43400736206E+02  0.00000000000E+00 0.  1.
         11    1    3    3    0    0  0.38692217539E+01  0.82160834621E+00  0.36191200711E+01  0.53613382289E+01  0.51100000000E-03 0.  1.
        -11    1    3    3    0    0  0.84375064227E+01 -0.10005903869E+01  0.27480815488E+02  0.28764351478E+02  0.51100000000E-03 0. -1.
        -12    1    3    3    0    0 -0.60490978810E+01  0.35893283853E+01  0.11711692582E+02  0.13661574088E+02  0.00000000000E+00 0.  1.
</event>
<event>
 7    1  0.9175399E-010  0.4778727E+02  0.7816164E-02  0.1312668E+00
        -11   -1    0    0    0    0  0.00000000000E+00  0.00000000000E+00  0.45593999997E+02  0.45594000000E+02  0.51100000000E-03 0. -1.
         11   -1    0    0    0    0 -0.00000000000E+00 -0.00000000000E+00 -0.45593999997E+02  0.45594000000E+02  0.51100000000E-03 0.  1.
    9900012    2    1    2    0    0  0.59574761103E+00 -0.27445815134E+02  0.33615407277E+02  0.47787270859E+02  0.19999999155E+02 0.  0.
        -12    1    1    2    0    0 -0.59574761103E+00  0.27445815134E+02 -0.33615407277E+02  0.43400729141E+02  0.00000000000E+00 0.  1.
         11    1    3    3    0    0 -0.22801919080E+01 -0.14804180447E+02  0.24977538087E+02  0.29124567688E+02  0.51100000000E-03 0. -1.
        -11    1    3    3    0    0  0.29957729997E+01 -0.28130473763E+00 -0.79674824030E+00  0.31126509989E+01  0.51100000000E-03 0.  1.
        -12    1    3    3    0    0 -0.11983348072E+00 -0.12360329949E+02  0.94346174299E+01  0.15550052173E+02  0.00000000000E+00 0.  1.
</event>
<event>
 7    1  0.9175399E-010  0.4778727E+02  0.7816164E-02  0.1312668E+00
        -11   -1    0    0    0    0  0.00000000000E+00  0.00000000000E+00  0.45593999997E+02  0.45594000000E+02  0.51100000000E-03 0. -1.
         11   -1    0    0    0    0 -0.00000000000E+00 -0.00000000000E+00 -0.45593999997E+02  0.45594000000E+02  0.51100000000E-03 0.  1.
    9900012    2    1    2    0    0 -0.40420883774E+02  0.27440807048E+01 -0.15564227578E+02  0.47787274153E+02  0.20000014171E+02 0.  0.
         12    1    1    2    0    0  0.40420883774E+02 -0.27440807048E+01  0.15564227578E+02  0.43400725847E+02  0.00000000000E+00 0. -1.
         11    1    3    3    0    0  0.21543117194E+01 -0.35760871550E+00 -0.12909569838E+01  0.25368313253E+01  0.51100000000E-03 0. -1.
        -11    1    3    3    0    0 -0.33542387268E+02  0.41078976553E+01 -0.12204203043E+02  0.35929224024E+02  0.51100000000E-03 0.  1.
         12    1    3    3    0    0 -0.90328082252E+01 -0.10062082350E+01 -0.20690675509E+01  0.93212188031E+01  0.00000000000E+00 0. -1.
</event>
<event>
 7    1  0.9175399E-010  0.4778728E+02  0.7816164E-02  0.1312668E+00
        -11   -1    0    0    0    0  0.00000000000E+00  0.00000000000E+00  0.45593999997E+02  0.45594000000E+02  0.51100000000E-03 0. -1.
         11   -1    0    0    0    0 -0.00000000000E+00 -0.00000000000E+00 -0.45593999997E+02  0.45594000000E+02  0.51100000000E-03 0.  1.
    9900012    2    1    2    0    0  0.11053821647E+02 -0.15528075083E+02  0.38991214268E+02  0.47787275595E+02  0.20000020749E+02 0.  0.
        -12    1    1    2    0    0 -0.11053821647E+02  0.15528075083E+02 -0.38991214268E+02  0.43400724405E+02  0.00000000000E+00 0.  1.
         11    1    3    3    0    0  0.10959925343E+00 -0.10721540987E+02  0.11967378799E+02  0.16068030642E+02  0.51100000000E-03 0. -1.
        -11    1    3    3    0    0  0.87845120859E+01 -0.24504628175E+00  0.24595868205E+02  0.26118660633E+02  0.51100000000E-03 0.  1.
        -12    1    3    3    0    0  0.21597103076E+01 -0.45614878140E+01  0.24279672633E+01  0.56005843197E+01  0.00000000000E+00 0.  1.
</event>
<event>
 7    1  0.9175399E-010  0.4778728E+02  0.7816164E-02  0.1312668E+00
        -11   -1    0    0    0    0  0.00000000000E+00  0.00000000000E+00  0.45593999997E+02  0.45594000000E+02  0.51100000000E-03 0. -1.
         11   -1    0    0    0    0 -0.00000000000E+00 -0.00000000000E+00 -0.45593999997E+02  0.45594000000E+02  0.51100000000E-03 0.  1.
    9900012    2    1    2    0    0  0.32356833714E+02 -0.16793489404E+02  0.23550713673E+02  0.47787284697E+02  0.20000062246E+02 0.  0.
        -12    1    1    2    0    0 -0.32356833714E+02  0.16793489404E+02 -0.23550713673E+02  0.43400715303E+02  0.00000000000E+00 0.  1.
         11    1    3    3    0    0  0.18858421016E+02 -0.63960255505E+01  0.17035287453E+02  0.26205919272E+02  0.51100000000E-03 0. -1.
        -11    1    3    3    0    0  0.85992405288E+01 -0.12551539486E+02  0.45577495374E+01  0.15882731574E+02  0.51100000000E-03 0.  1.
        -12    1    3    3    0    0  0.48991721688E+01  0.21540756321E+01  0.19576766826E+01  0.56986338506E+01  0.00000000000E+00 0.  1.
</event>
<event>
 7    1  0.9175399E-010  0.4778727E+02  0.7816164E-02  0.1312668E+00
        -11   -1    0    0    0    0  0.00000000000E+00  0.00000000000E+00  0.45593999997E+02  0.45594000000E+02  0.51100000000E-03 0. -1.
         11   -1    0    0    0    0 -0.00000000000E+00 -0.00000000000E+00 -0.45593999997E+02  0.45594000000E+02  0.51100000000E-03 0.  1.
    9900012    2    1    2    0    0 -0.12355227998E+02 -0.22222801279E+02  0.35172695526E+02  0.47787273438E+02  0.20000010912E+02 0.  0.
        -12    1    1    2    0    0  0.12355227998E+02  0.22222801279E+02 -0.35172695526E+02  0.43400726562E+02  0.00000000000E+00 0.  1.
         11    1    3    3    0    0 -0.14061051450E+02 -0.19192278306E+02  0.31970749069E+02  0.39852045252E+02  0.51100000000E-03 0. -1.
        -11    1    3    3    0    0 -0.49559007148E+00 -0.21817437695E+01 -0.14868191527E+01  0.26863072886E+01  0.51100000000E-03 0.  1.
         12    1    3    3    0    0  0.22014135240E+01 -0.84877920301E+00  0.46887656103E+01  0.52489208975E+01  0.00000000000E+00 0. -1.
</event>
<event>
 7    1  0.9175399E-010  0.4778727E+02  0.7816164E-02  0.1312668E+00
        -11   -1    0    0    0    0  0.00000000000E+00  0.00000000000E+00  0.45593999997E+02  0.45594000000E+02  0.51100000000E-03 0. -1.
         11   -1    0    0    0    0 -0.00000000000E+00 -0.00000000000E+00 -0.45593999997E+02  0.45594000000E+02  0.51100000000E-03 0.  1.
    9900012    2    1    2    0    0  0.11474853945E+02  0.28167300927E+02  0.30960528117E+02  0.47787269409E+02  0.19999992543E+02 0.  0.
        -12    1    1    2    0    0 -0.11474853945E+02 -0.28167300927E+02 -0.30960528117E+02  0.43400730591E+02  0.00000000000E+00 0.  1.
         11    1    3    3    0    0  0.42633273184E+01  0.22132769742E+02  0.18202647083E+02  0.28971914285E+02  0.51100000000E-03 0. -1.
        -11    1    3    3    0    0  0.62338678683E+01  0.50887199771E+00  0.18069072218E+01  0.65103742810E+01  0.51100000000E-03 0.  1.
        -12    1    3    3    0    0  0.97765875783E+00  0.55256591874E+01  0.10950973812E+02  0.12304980843E+02  0.00000000000E+00 0.  1.
</event>
<event>
 7    1  0.9175399E-010  0.4778727E+02  0.7816164E-02  0.1312668E+00
        -11   -1    0    0    0    0  0.00000000000E+00  0.00000000000E+00  0.45593999997E+02  0.45594000000E+02  0.51100000000E-03 0. -1.
         11   -1    0    0    0    0 -0.00000000000E+00 -0.00000000000E+00 -0.45593999997E+02  0.45594000000E+02  0.51100000000E-03 0.  1.
    9900012    2    1    2    0    0 -0.12090965929E+02  0.97855567142E+01 -0.40517583486E+02  0.47787272485E+02  0.20000006566E+02 0.  0.
         12    1    1    2    0    0  0.12090965929E+02 -0.97855567142E+01  0.40517583486E+02  0.43400727515E+02  0.00000000000E+00 0. -1.
         11    1    3    3    0    0 -0.76109164527E+01 -0.17743269503E+01 -0.68969610534E+01  0.10423164462E+02  0.51100000000E-03 0. -1.
        -11    1    3    3    0    0 -0.53410311536E+01  0.13136538323E+02 -0.26917592124E+02  0.30424529888E+02  0.51100000000E-03 0.  1.
        -12    1    3    3    0    0  0.86098167736E+00 -0.15766546581E+01 -0.67030303088E+01  0.69395781341E+01  0.00000000000E+00 0.  1.
</event>
<event>
 7    1  0.9175399E-010  0.4778727E+02  0.7816164E-02  0.1312668E+00
        -11   -1    0    0    0    0  0.00000000000E+00  0.00000000000E+00  0.45593999997E+02  0.45594000000E+02  0.51100000000E-03 0. -1.
         11   -1    0    0    0    0 -0.00000000000E+00 -0.00000000000E+00 -0.45593999997E+02  0.45594000000E+02  0.51100000000E-03 0.  1.
    9900012    2    1    2    0    0 -0.18777073667E+02  0.26038914839E+02  0.29206508222E+02  0.47787266089E+02  0.19999977406E+02 0.  0.
        -12    1    1    2    0    0  0.18777073667E+02 -0.26038914839E+02 -0.29206508222E+02  0.43400733911E+02  0.00000000000E+00 0.  1.
         11    1    3    3    0    0 -0.14068139715E+02  0.11076424988E+02  0.19623690204E+02  0.26564806851E+02  0.51100000000E-03 0. -1.
        -11    1    3    3    0    0  0.31999227251E+01  0.20718876776E+01  0.19697698906E+01  0.42909460121E+01  0.51100000000E-03 0.  1.
        -12    1    3    3    0    0 -0.79088566779E+01  0.12890602173E+02  0.76130481278E+01  0.16931513226E+02  0.00000000000E+00 0.  1.
</event>
<event>
 7    1  0.9175399E-010  0.4778725E+02  0.7816164E-02  0.1312668E+00
        -11   -1    0    0    0    0  0.00000000000E+00  0.00000000000E+00  0.45593999997E+02  0.45594000000E+02  0.51100000000E-03 0. -1.
         11   -1    0    0    0    0 -0.00000000000E+00 -0.00000000000E+00 -0.45593999997E+02  0.45594000000E+02  0.51100000000E-03 0.  1.
    9900012    2    1    2    0    0 -0.22599130182E+02 -0.22492445210E+02  0.29444767960E+02  0.47787249584E+02  0.19999902153E+02 0.  0.
        -12    1    1    2    0    0  0.22599130182E+02  0.22492445210E+02 -0.29444767960E+02  0.43400750416E+02  0.00000000000E+00 0.  1.
         11    1    3    3    0    0  0.92006836829E+00 -0.58226777111E+01  0.11282030414E+02  0.12729269894E+02  0.51100000000E-03 0. -1.
        -11    1    3    3    0    0 -0.87072437524E-01 -0.94457642655E+00  0.27385772846E+01  0.28982084190E+01  0.51100000000E-03 0.  1.
         12    1    3    3    0    0 -0.23432126112E+02 -0.15725191072E+02  0.15424160262E+02  0.32159771271E+02  0.00000000000E+00 0. -1.
</event>
<event>
 7    1  0.9175399E-010  0.4778727E+02  0.7816164E-02  0.1312668E+00
        -11   -1    0    0    0    0  0.00000000000E+00  0.00000000000E+00  0.45593999997E+02  0.45594000000E+02  0.51100000000E-03 0. -1.
         11   -1    0    0    0    0 -0.00000000000E+00 -0.00000000000E+00 -0.45593999997E+02  0.45594000000E+02  0.51100000000E-03 0.  1.
    9900012    2    1    2    0    0 -0.22041560043E+02  0.31608038234E+01  0.37253214214E+02  0.47787273978E+02  0.20000013375E+02 0.  0.
        -12    1    1    2    0    0  0.22041560043E+02 -0.31608038234E+01 -0.37253214214E+02  0.43400726022E+02  0.00000000000E+00 0.  1.
         11    1    3    3    0    0 -0.11890644395E+02  0.73412511283E+00  0.29949684867E+02  0.32232126640E+02  0.51100000000E-03 0. -1.
        -11    1    3    3    0    0 -0.25943357497E+01 -0.32849533461E+01  0.15009450960E+01  0.44468340323E+01  0.51100000000E-03 0.  1.
         12    1    3    3    0    0 -0.75565798985E+01  0.57116320567E+01  0.58025842509E+01  0.11108313306E+02  0.00000000000E+00 0. -1.
</event>
<event>
 7    1  0.9175399E-010  0.4778728E+02  0.7816164E-02  0.1312668E+00
        -11   -1    0    0    0    0  0.00000000000E+00  0.00000000000E+00  0.45593999997E+02  0.45594000000E+02  0.51100000000E-03 0. -1.
         11   -1    0    0    0    0 -0.00000000000E+00 -0.00000000000E+00 -0.45593999997E+02  0.45594000000E+02  0.51100000000E-03 0.  1.
    9900012    2    1    2    0    0  0.10263362640E+02 -0.32993148563E+02 -0.26262867682E+02  0.47787277843E+02  0.20000030999E+02 0.  0.
         12    1    1    2    0    0 -0.10263362640E+02  0.32993148563E+02  0.26262867682E+02  0.43400722157E+02  0.00000000000E+00 0. -1.
         11    1    3    3    0    0  0.65542975344E+01 -0.65943094392E+01 -0.39382669683E+01  0.10097211502E+02  0.51100000000E-03 0. -1.
        -11    1    3    3    0    0  0.90524491890E+01 -0.20078598221E+02 -0.17310264397E+02  0.28013250376E+02  0.51100000000E-03 0.  1.
        -12    1    3    3    0    0 -0.53433840830E+01 -0.63202409027E+01 -0.50143363172E+01  0.96768159654E+01  0.00000000000E+00 0.  1.
</event>
<event>
 7    1  0.9175399E-010  0.4778727E+02  0.7816164E-02  0.1312668E+00
        -11   -1    0    0    0    0  0.00000000000E+00  0.00000000000E+00  0.45593999997E+02  0.45594000000E+02  0.51100000000E-03 0. -1.
         11   -1    0    0    0    0 -0.00000000000E+00 -0.00000000000E+00 -0.45593999997E+02  0.45594000000E+02  0.51100000000E-03 0.  1.
    9900012    2    1    2    0    0 -0.99267629961E+01  0.21987436205E+02 -0.36078182049E+02  0.47787271960E+02  0.20000004174E+02 0.  0.
         12    1    1    2    0    0  0.99267629961E+01 -0.21987436205E+02  0.36078182049E+02  0.43400728040E+02  0.00000000000E+00 0. -1.
         11    1    3    3    0    0 -0.45521416302E+01  0.28527427160E+01 -0.12555729403E+01  0.55169373836E+01  0.51100000000E-03 0. -1.
        -11    1    3    3    0    0 -0.23092641298E+01  0.13550092013E+02 -0.32836441416E+02  0.35597325455E+02  0.51100000000E-03 0.  1.
        -12    1    3    3    0    0 -0.30653572360E+01  0.55846014766E+01 -0.19861676919E+01  0.66730091216E+01  0.00000000000E+00 0.  1.
</event>
<event>
 7    1  0.9175399E-010  0.4778727E+02  0.7816164E-02  0.1312668E+00
        -11   -1    0    0    0    0  0.00000000000E+00  0.00000000000E+00  0.45593999997E+02  0.45594000000E+02  0.51100000000E-03 0. -1.
         11   -1    0    0    0    0 -0.00000000000E+00 -0.00000000000E+00 -0.45593999997E+02  0.45594000000E+02  0.51100000000E-03 0.  1.
    9900012    2    1    2    0    0  0.14223465807E+02  0.24439626679E+02  0.32924468178E+02  0.47787274930E+02  0.20000017716E+02 0.  0.
        -12    1    1    2    0    0 -0.14223465807E+02 -0.24439626679E+02 -0.32924468178E+02  0.43400725070E+02  0.00000000000E+00 0.  1.
         11    1    3    3    0    0  0.53951566416E+01  0.11731400132E+02  0.11472903524E+02  0.17273128836E+02  0.51100000000E-03 0. -1.
        -11    1    3    3    0    0  0.84151396617E+01  0.57787342618E+01  0.27594362179E+01  0.10574631610E+02  0.51100000000E-03 0.  1.
        -12    1    3    3    0    0  0.41316950368E+00  0.69294922853E+01  0.18692128436E+02  0.19939514483E+02  0.00000000000E+00 0.  1.
</event>
<event>
 7    1  0.9175399E-010  0.4778727E+02  0.7816164E-02  0.1312668E+00
        -11   -1    0    0    0    0  0.00000000000E+00  0.00000000000E+00  0.45593999997E+02  0.45594000000E+02  0.51100000000E-03 0. -1.
         11   -1    0    0    0    0 -0.00000000000E+00 -0.00000000000E+00 -0.45593999997E+02  0.45594000000E+02  0.51100000000E-03 0.  1.
    9900012    2    1    2    0    0 -0.26170227810E+02  0.44844235244E+01  0.34331213124E+02  0.47787273364E+02  0.20000010575E+02 0.  0.
        -12    1    1    2    0    0  0.26170227810E+02 -0.44844235244E+01 -0.34331213124E+02  0.43400726636E+02  0.00000000000E+00 0.  1.
         11    1    3    3    0    0 -0.18731537195E+02  0.10628413906E+02  0.30152559995E+02  0.37054156884E+02  0.51100000000E-03 0. -1.
        -11    1    3    3    0    0 -0.37464898533E+01 -0.43867320296E+01  0.28438194912E+01  0.64317115669E+01  0.51100000000E-03 0.  1.
         12    1    3    3    0    0 -0.36922007623E+01 -0.17572583521E+01  0.13348336374E+01  0.43014049129E+01  0.00000000000E+00 0. -1.
</event>
<event>
 7    1  0.9175399E-010  0.4778727E+02  0.7816164E-02  0.1312668E+00
        -11   -1    0    0    0    0  0.00000000000E+00  0.00000000000E+00  0.45593999997E+02  0.45594000000E+02  0.51100000000E-03 0. -1.
         11   -1    0    0    0    0 -0.00000000000E+00 -0.00000000000E+00 -0.45593999997E+02  0.45594000000E+02  0.51100000000E-03 0.  1.
    9900012    2    1    2    0    0 -0.67477657771E+01 -0.41432871357E+02 -0.11018537362E+02  0.47787270312E+02  0.19999996661E+02 0.  0.
         12    1    1    2    0    0  0.67477657771E+01  0.41432871357E+02  0.11018537362E+02  0.43400729688E+02  0.00000000000E+00 0. -1.
         11    1    3    3    0    0 -0.55794268900E+01 -0.26819153535E+02 -0.71516789800E+00  0.27402709103E+02  0.51100000000E-03 0. -1.
        -11    1    3    3    0    0 -0.17520425076E+01 -0.52951868723E+00 -0.49985895841E+01  0.53231514237E+01  0.51100000000E-03 0.  1.
        -12    1    3    3    0    0  0.58370362050E+00 -0.14084199134E+02 -0.53047798803E+01  0.15061409786E+02  0.00000000000E+00 0.  1.
</event>
<event>
 7    1  0.9175399E-010  0.4778727E+02  0.7816164E-02  0.1312668E+00
        -11   -1    0    0    0    0  0.00000000000E+00  0.00000000000E+00  0.45593999997E+02  0.45594000000E+02  0.51100000000E-03 0. -1.
         11   -1    0    0    0    0 -0.00000000000E+00 -0.00000000000E+00 -0.45593999997E+02  0.45594000000E+02  0.51100000000E-03 0.  1.
    9900012    2    1    2    0    0 -0.19371964426E+01  0.17605858810E+02  0.39622021418E+02  0.47787267567E+02  0.19999984144E+02 0.  0.
        -12    1    1    2    0    0  0.19371964426E+01 -0.17605858810E+02 -0.39622021418E+02  0.43400732433E+02  0.00000000000E+00 0.  1.
         11    1    3    3    0    0 -0.21643600339E+01  0.14369426644E+02  0.37258662423E+02  0.39992159259E+02  0.51100000000E-03 0. -1.
        -11    1    3    3    0    0  0.51427338952E+00  0.29242912664E+00 -0.22436004037E+01  0.23202876860E+01  0.51100000000E-03 0.  1.
        -12    1    3    3    0    0 -0.28710979816E+00  0.29440030392E+01  0.46069593990E+01  0.54748206213E+01  0.00000000000E+00 0.  1.
</event>
<event>
 7    1  0.9175399E-010  0.4778727E+02  0.7816164E-02  0.1312668E+00
        -11   -1    0    0    0    0  0.00000000000E+00  0.00000000000E+00  0.45593999997E+02  0.45594000000E+02  0.51100000000E-03 0. -1.
         11   -1    0    0    0    0 -0.00000000000E+00 -0.00000000000E+00 -0.45593999997E+02  0.45594000000E+02  0.51100000000E-03 0.  1.
    9900012    2    1    2    0    0 -0.79787324008E+00  0.41616723221E+02 -0.12289638135E+02  0.47787268913E+02  0.19999990284E+02 0.  0.
         12    1    1    2    0    0  0.79787324008E+00 -0.41616723221E+02  0.12289638135E+02  0.43400731087E+02  0.00000000000E+00 0. -1.
         11    1    3    3    0    0  0.17957223975E+01  0.22352236991E+01 -0.77582465470E+00  0.29703111066E+01  0.51100000000E-03 0. -1.
        -11    1    3    3    0    0  0.52378354945E+01  0.13010985505E+02 -0.10077453870E+02  0.17270661286E+02  0.51100000000E-03 0.  1.
        -12    1    3    3    0    0 -0.78314311321E+01  0.26370514017E+02 -0.14363596098E+01  0.27546296521E+02  0.00000000000E+00 0.  1.
</event>
<event>
 7    1  0.9175399E-010  0.4778727E+02  0.7816164E-02  0.1312668E+00
        -11   -1    0    0    0    0  0.00000000000E+00  0.00000000000E+00  0.45593999997E+02  0.45594000000E+02  0.51100000000E-03 0. -1.
         11   -1    0    0    0    0 -0.00000000000E+00 -0.00000000000E+00 -0.45593999997E+02  0.45594000000E+02  0.51100000000E-03 0.  1.
    9900012    2    1    2    0    0  0.30620250344E+02  0.10675652592E+02  0.28845342954E+02  0.47787273053E+02  0.20000009156E+02 0.  0.
        -12    1    1    2    0    0 -0.30620250344E+02 -0.10675652592E+02 -0.28845342954E+02  0.43400726947E+02  0.00000000000E+00 0.  1.
         11    1    3    3    0    0  0.18016665857E+02  0.56131442176E+01  0.25727208115E+02  0.31906063284E+02  0.51100000000E-03 0. -1.
        -11    1    3    3    0    0  0.36366586457E+01  0.54914253429E+01  0.15788380720E+01  0.67730176673E+01  0.51100000000E-03 0.  1.
         12    1    3    3    0    0  0.89669258420E+01 -0.42891696897E+00  0.15392967667E+01  0.91081921015E+01  0.00000000000E+00 0. -1.
</event>
<event>
 7    1  0.9175399E-010  0.4778727E+02  0.7816164E-02  0.1312668E+00
        -11   -1    0    0    0    0  0.00000000000E+00  0.00000000000E+00  0.45593999997E+02  0.45594000000E+02  0.51100000000E-03 0. -1.
         11   -1    0    0    0    0 -0.00000000000E+00 -0.00000000000E+00 -0.45593999997E+02  0.45594000000E+02  0.51100000000E-03 0.  1.
    9900012    2    1    2    0    0  0.11767930070E+02  0.30099182101E+02  0.28968577884E+02  0.47787269062E+02  0.19999990963E+02 0.  0.
        -12    1    1    2    0    0 -0.11767930070E+02 -0.30099182101E+02 -0.28968577884E+02  0.43400730938E+02  0.00000000000E+00 0.  1.
         11    1    3    3    0    0  0.10788644647E+02  0.16106419103E+02  0.15842344315E+02  0.25035803628E+02  0.51100000000E-03 0. -1.
        -11    1    3    3    0    0 -0.15797009899E+01  0.11628616500E+02  0.31011315220E+01  0.12138253330E+02  0.51100000000E-03 0.  1.
         12    1    3    3    0    0  0.25589864134E+01  0.23641464986E+01  0.10025102047E+02  0.10613212105E+02  0.00000000000E+00 0. -1.
</event>
<event>
 7    1  0.9175399E-010  0.4778727E+02  0.7816164E-02  0.1312668E+00
        -11   -1    0    0    0    0  0.00000000000E+00  0.00000000000E+00  0.45593999997E+02  0.45594000000E+02  0.51100000000E-03 0. -1.
         11   -1    0    0    0    0 -0.00000000000E+00 -0.00000000000E+00 -0.45593999997E+02  0.45594000000E+02  0.51100000000E-03 0.  1.
    9900012    2    1    2    0    0 -0.11388934511E+02 -0.29507180025E+02 -0.29719388989E+02  0.47787267469E+02  0.19999983700E+02 0.  0.
         12    1    1    2    0    0  0.11388934511E+02  0.29507180025E+02  0.29719388989E+02  0.43400732531E+02  0.00000000000E+00 0. -1.
         11    1    3    3    0    0 -0.80240353586E+00 -0.75769288659E+00  0.16656877065E+01  0.19981155476E+01  0.51100000000E-03 0. -1.
        -11    1    3    3    0    0 -0.12592522947E+02 -0.28188286202E+02 -0.27337365893E+02  0.41236909285E+02  0.51100000000E-03 0.  1.
        -12    1    3    3    0    0  0.20059919720E+01 -0.56120093691E+00 -0.40477108026E+01  0.45522426369E+01  0.00000000000E+00 0.  1.
</event>
<event>
 7    1  0.9175399E-010  0.4778727E+02  0.7816164E-02  0.1312668E+00
        -11   -1    0    0    0    0  0.00000000000E+00  0.00000000000E+00  0.45593999997E+02  0.45594000000E+02  0.51100000000E-03 0. -1.
         11   -1    0    0    0    0 -0.00000000000E+00 -0.00000000000E+00 -0.45593999997E+02  0.45594000000E+02  0.51100000000E-03 0.  1.
    9900012    2    1    2    0    0  0.92002888608E+01 -0.75478350405E+01 -0.41737370988E+02  0.47787271136E+02  0.20000000420E+02 0.  0.
         12    1    1    2    0    0 -0.92002888608E+01  0.75478350405E+01  0.41737370988E+02  0.43400728864E+02  0.00000000000E+00 0. -1.
         11    1    3    3    0    0  0.10064561332E+02 -0.25042741839E+01 -0.29514446108E+02  0.31283690852E+02  0.51100000000E-03 0. -1.
        -11    1    3    3    0    0  0.39977579569E+01 -0.84278869526E-01 -0.57929470923E+01  0.70389919651E+01  0.51100000000E-03 0.  1.
         12    1    3    3    0    0 -0.48620304279E+01 -0.49592819871E+01 -0.64299777869E+01  0.94645883191E+01  0.00000000000E+00 0. -1.
</event>
<event>
 7    1  0.9175399E-010  0.4778727E+02  0.7816164E-02  0.1312668E+00
        -11   -1    0    0    0    0  0.00000000000E+00  0.00000000000E+00  0.45593999997E+02  0.45594000000E+02  0.51100000000E-03 0. -1.
         11   -1    0    0    0    0 -0.00000000000E+00 -0.00000000000E+00 -0.45593999997E+02  0.45594000000E+02  0.51100000000E-03 0.  1.
    9900012    2    1    2    0    0 -0.93626996164E+01 -0.29572722531E+02  0.30354861679E+02  0.47787266256E+02  0.19999978166E+02 0.  0.
        -12    1    1    2    0    0  0.93626996164E+01  0.29572722531E+02 -0.30354861679E+02  0.43400733744E+02  0.00000000000E+00 0.  1.
         11    1    3    3    0    0 -0.83300438853E+01 -0.42223675309E+01  0.13618565930E+02  0.16513126807E+02  0.51100000000E-03 0. -1.
        -11    1    3    3    0    0  0.75267120408E+00 -0.10935753247E+02  0.31986974160E+01  0.11418794964E+02  0.51100000000E-03 0.  1.
        -12    1    3    3    0    0 -0.17853269352E+01 -0.14414601753E+02  0.13537598333E+02  0.19855344485E+02  0.00000000000E+00 0.  1.
</event>
<event>
 7    1  0.9175399E-010  0.4778727E+02  0.7816164E-02  0.1312668E+00
        -11   -1    0    0    0    0  0.00000000000E+00  0.00000000000E+00  0.45593999997E+02  0.45594000000E+02  0.51100000000E-03 0. -1.
         11   -1    0    0    0    0 -0.00000000000E+00 -0.00000000000E+00 -0.45593999997E+02  0.45594000000E+02  0.51100000000E-03 0.  1.
    9900012    2    1    2    0    0 -0.80667680170E+01 -0.23483607394E+02 -0.35595943976E+02  0.47787265098E+02  0.19999972887E+02 0.  0.
         12    1    1    2    0    0  0.80667680170E+01  0.23483607394E+02  0.35595943976E+02  0.43400734902E+02  0.00000000000E+00 0. -1.
         11    1    3    3    0    0 -0.24120813610E+01 -0.12679332560E+02 -0.31002938035E+02  0.33582224133E+02  0.51100000000E-03 0. -1.
        -11    1    3    3    0    0 -0.46926481986E+01 -0.93167896095E+01 -0.59173312301E+01  0.11993261645E+02  0.51100000000E-03 0.  1.
         12    1    3    3    0    0 -0.96203845732E+00 -0.14874852251E+01  0.13243252889E+01  0.22117793197E+01  0.00000000000E+00 0. -1.
</event>
<event>
 7    1  0.9175399E-010  0.4778729E+02  0.7816164E-02  0.1312668E+00
        -11   -1    0    0    0    0  0.00000000000E+00  0.00000000000E+00  0.45593999997E+02  0.45594000000E+02  0.51100000000E-03 0. -1.
         11   -1    0    0    0    0 -0.00000000000E+00 -0.00000000000E+00 -0.45593999997E+02  0.45594000000E+02  0.51100000000E-03 0.  1.
    9900012    2    1    2    0    0  0.32330382584E+01  0.34266536491E+01 -0.43144261851E+02  0.47787287768E+02  0.20000076248E+02 0.  0.
         12    1    1    2    0    0 -0.32330382584E+01 -0.34266536491E+01  0.43144261851E+02  0.43400712232E+02  0.00000000000E+00 0. -1.
         11    1    3    3    0    0 -0.30917241698E+01  0.49233341199E+00 -0.94283630664E+01  0.99345448262E+01  0.51100000000E-03 0. -1.
        -11    1    3    3    0    0  0.43907932945E+01 -0.49460384502E+01 -0.25348503334E+02  0.26197117850E+02  0.51100000000E-03 0.  1.
        -12    1    3    3    0    0  0.19339691337E+01  0.78803586873E+01 -0.83673954502E+01  0.11655625091E+02  0.00000000000E+00 0.  1.
</event>
<event>
 7    1  0.9175399E-010  0.4778727E+02  0.7816164E-02  0.1312668E+00
        -11   -1    0    0    0    0  0.00000000000E+00  0.00000000000E+00  0.45593999997E+02  0.45594000000E+02  0.51100000000E-03 0. -1.
         11   -1    0    0    0    0 -0.00000000000E+00 -0.00000000000E+00 -0.45593999997E+02  0.45594000000E+02  0.51100000000E-03 0.  1.
    9900012    2    1    2    0    0  0.12454200386E+02  0.68029615862E+01 -0.41015067217E+02  0.47787272674E+02  0.20000007431E+02 0.  0.
         12    1    1    2    0    0 -0.12454200386E+02 -0.68029615862E+01  0.41015067217E+02  0.43400727326E+02  0.00000000000E+00 0. -1.
         11    1    3    3    0    0  0.56663662820E+01  0.19061250591E+01 -0.62941865886E+01  0.86808873197E+01  0.51100000000E-03 0. -1.
        -11    1    3    3    0    0  0.10498597044E+02  0.75069767540E+01 -0.29436908067E+02  0.32141978730E+02  0.51100000000E-03 0.  1.
        -12    1    3    3    0    0 -0.37107629401E+01 -0.26101402268E+01 -0.52839725612E+01  0.69644066243E+01  0.00000000000E+00 0.  1.
</event>
<event>
 7    1  0.9175399E-010  0.4778727E+02  0.7816164E-02  0.1312668E+00
        -11   -1    0    0    0    0  0.00000000000E+00  0.00000000000E+00  0.45593999997E+02  0.45594000000E+02  0.51100000000E-03 0. -1.
         11   -1    0    0    0    0 -0.00000000000E+00 -0.00000000000E+00 -0.45593999997E+02  0.45594000000E+02  0.51100000000E-03 0.  1.
    9900012    2    1    2    0    0  0.70329092576E+01 -0.24609346816E+02 -0.35050562376E+02  0.47787266294E+02  0.19999978342E+02 0.  0.
         12    1    1    2    0    0 -0.70329092576E+01  0.24609346816E+02  0.35050562376E+02  0.43400733706E+02  0.00000000000E+00 0. -1.
         11    1    3    3    0    0 -0.33655408789E+01 -0.63663169961E+01 -0.18276319009E+02  0.19643846219E+02  0.51100000000E-03 0. -1.
        -11    1    3    3    0    0  0.11133067671E+02 -0.14210537735E+02 -0.11272639653E+02  0.21282786084E+02  0.51100000000E-03 0.  1.
        -12    1    3    3    0    0 -0.73461753472E+00 -0.40324920842E+01 -0.55016037138E+01  0.68606339907E+01  0.00000000000E+00 0.  1.
</event>
<event>
 7    1  0.9175399E-010  0.4778728E+02  0.7816164E-02  0.1312668E+00
        -11   -1    0    0    0    0  0.00000000000E+00  0.00000000000E+00  0.45593999997E+02  0.45594000000E+02  0.51100000000E-03 0. -1.
         11   -1    0    0    0    0 -0.00000000000E+00 -0.00000000000E+00 -0.45593999997E+02  0.45594000000E+02  0.51100000000E-03 0.  1.
    9900012    2    1    2    0    0  0.22475069424E+02 -0.58833607367E+01 -0.36658964671E+02  0.47787281458E+02  0.20000047481E+02 0.  0.
         12    1    1    2    0    0 -0.22475069424E+02  0.58833607367E+01  0.36658964671E+02  0.43400718542E+02  0.00000000000E+00 0. -1.
         11    1    3    3    0    0  0.16944875177E+01  0.34647152493E+01 -0.59587181987E+00  0.39026405412E+01  0.51100000000E-03 0. -1.
        -11    1    3    3    0    0  0.20385839092E+02 -0.54743549726E+01 -0.30742111761E+02  0.37291130764E+02  0.51100000000E-03 0.  1.
        -12    1    3    3    0    0  0.39474281389E+00 -0.38737210135E+01 -0.53209810900E+01  0.65935101531E+01  0.00000000000E+00 0.  1.
</event>
<event>
 7    1  0.9175399E-010  0.4778728E+02  0.7816164E-02  0.1312668E+00
        -11   -1    0    0    0    0  0.00000000000E+00  0.00000000000E+00  0.45593999997E+02  0.45594000000E+02  0.51100000000E-03 0. -1.
         11   -1    0    0    0    0 -0.00000000000E+00 -0.00000000000E+00 -0.45593999997E+02  0.45594000000E+02  0.51100000000E-03 0.  1.
    9900012    2    1    2    0    0  0.27230532934E+02 -0.24239986539E+02  0.23548755467E+02  0.47787277019E+02  0.20000027240E+02 0.  0.
        -12    1    1    2    0    0 -0.27230532934E+02  0.24239986539E+02 -0.23548755467E+02  0.43400722981E+02  0.00000000000E+00 0.  1.
         11    1    3    3    0    0  0.77532232432E+01 -0.32443906530E+01 -0.12333907511E+01  0.84946921295E+01  0.51100000000E-03 0.  1.
        -11    1    3    3    0    0 -0.88959684234E+00 -0.23613814370E+01  0.60051190624E+00  0.25938619168E+01  0.51100000000E-03 0. -1.
         12    1    3    3    0    0  0.20366906533E+02 -0.18634214449E+02  0.24181634312E+02  0.36698722973E+02  0.00000000000E+00 0. -1.
</event>
<event>
 7    1  0.9175399E-010  0.4778732E+02  0.7816164E-02  0.1312668E+00
        -11   -1    0    0    0    0  0.00000000000E+00  0.00000000000E+00  0.45593999997E+02  0.45594000000E+02  0.51100000000E-03 0. -1.
         11   -1    0    0    0    0 -0.00000000000E+00 -0.00000000000E+00 -0.45593999997E+02  0.45594000000E+02  0.51100000000E-03 0.  1.
    9900012    2    1    2    0    0 -0.30299728238E+02  0.20600904915E+02  0.23262593177E+02  0.47787319637E+02  0.20000221553E+02 0.  0.
        -12    1    1    2    0    0  0.30299728238E+02 -0.20600904915E+02 -0.23262593177E+02  0.43400680363E+02  0.00000000000E+00 0.  1.
         11    1    3    3    0    0 -0.67137562921E+01  0.27562420952E+01  0.59534831806E+01  0.93869780164E+01  0.51100000000E-03 0.  1.
        -11    1    3    3    0    0 -0.25057941524E+02  0.11653851585E+02  0.12063711697E+02  0.30153703427E+02  0.51100000000E-03 0. -1.
        -12    1    3    3    0    0  0.14719695780E+01  0.61908112351E+01  0.52453982992E+01  0.82466381941E+01  0.00000000000E+00 0.  1.
</event>
<event>
 7    1  0.9175399E-010  0.4778727E+02  0.7816164E-02  0.1312668E+00
        -11   -1    0    0    0    0  0.00000000000E+00  0.00000000000E+00  0.45593999997E+02  0.45594000000E+02  0.51100000000E-03 0. -1.
         11   -1    0    0    0    0 -0.00000000000E+00 -0.00000000000E+00 -0.45593999997E+02  0.45594000000E+02  0.51100000000E-03 0.  1.
    9900012    2    1    2    0    0  0.53741906897E+01 -0.68852818434E+01  0.42512757766E+02  0.47787267235E+02  0.19999982633E+02 0.  0.
        -12    1    1    2    0    0 -0.53741906897E+01  0.68852818434E+01 -0.42512757766E+02  0.43400732765E+02  0.00000000000E+00 0.  1.
         11    1    3    3    0    0  0.89397870993E+00 -0.74193750871E+01  0.53415146964E+01  0.91857555013E+01  0.51100000000E-03 0. -1.
        -11    1    3    3    0    0 -0.85409900775E-01  0.41128722251E+01  0.99107002937E+01  0.10730563516E+02  0.51100000000E-03 0.  1.
         12    1    3    3    0    0  0.45656218806E+01 -0.35787789814E+01  0.27260542776E+02  0.27870948218E+02  0.00000000000E+00 0. -1.
</event>
<event>
 7    1  0.9175399E-010  0.4778728E+02  0.7816164E-02  0.1312668E+00
        -11   -1    0    0    0    0  0.00000000000E+00  0.00000000000E+00  0.45593999997E+02  0.45594000000E+02  0.51100000000E-03 0. -1.
         11   -1    0    0    0    0 -0.00000000000E+00 -0.00000000000E+00 -0.45593999997E+02  0.45594000000E+02  0.51100000000E-03 0.  1.
    9900012    2    1    2    0    0 -0.23209060341E+02  0.23659664631E+02  0.28021103807E+02  0.47787280294E+02  0.20000042174E+02 0.  0.
        -12    1    1    2    0    0  0.23209060341E+02 -0.23659664631E+02 -0.28021103807E+02  0.43400719706E+02  0.00000000000E+00 0.  1.
         11    1    3    3    0    0  0.11333417146E+01  0.29565063915E+01 -0.12709655232E+01  0.34118539106E+01  0.51100000000E-03 0. -1.
        -11    1    3    3    0    0 -0.17315716968E+01  0.31251170562E+01  0.77644427314E+01  0.85470034718E+01  0.51100000000E-03 0.  1.
         12    1    3    3    0    0 -0.22610830359E+02  0.17578041184E+02  0.21527626599E+02  0.35828422912E+02  0.00000000000E+00 0. -1.
</event>
<event>
 7    1  0.9175399E-010  0.4778727E+02  0.7816164E-02  0.1312668E+00
        -11   -1    0    0    0    0  0.00000000000E+00  0.00000000000E+00  0.45593999997E+02  0.45594000000E+02  0.51100000000E-03 0. -1.
         11   -1    0    0    0    0 -0.00000000000E+00 -0.00000000000E+00 -0.45593999997E+02  0.45594000000E+02  0.51100000000E-03 0.  1.
    9900012    2    1    2    0    0  0.34673269516E+02  0.18626696871E+02  0.18287528270E+02  0.47787272523E+02  0.20000006742E+02 0.  0.
        -12    1    1    2    0    0 -0.34673269516E+02 -0.18626696871E+02 -0.18287528270E+02  0.43400727477E+02  0.00000000000E+00 0.  1.
         11    1    3    3    0    0  0.72944687800E+01 -0.97179144269E+00  0.23750054192E+01  0.77326776988E+01  0.51100000000E-03 0. -1.
        -11    1    3    3    0    0  0.23714420125E+02  0.19130543894E+02  0.82781071321E+01  0.31573382611E+02  0.51100000000E-03 0.  1.
        -12    1    3    3    0    0  0.36643806112E+01  0.46794442022E+00  0.76344157186E+01  0.84812122134E+01  0.00000000000E+00 0.  1.
</event>
<event>
 7    1  0.9175399E-010  0.4778727E+02  0.7816164E-02  0.1312668E+00
        -11   -1    0    0    0    0  0.00000000000E+00  0.00000000000E+00  0.45593999997E+02  0.45594000000E+02  0.51100000000E-03 0.  1.
         11   -1    0    0    0    0 -0.00000000000E+00 -0.00000000000E+00 -0.45593999997E+02  0.45594000000E+02  0.51100000000E-03 0. -1.
    9900012    2    1    2    0    0 -0.27465501061E+02 -0.30328165591E+02 -0.14473147161E+02  0.47787269990E+02  0.19999995194E+02 0.  0.
         12    1    1    2    0    0  0.27465501061E+02  0.30328165591E+02  0.14473147161E+02  0.43400730010E+02  0.00000000000E+00 0. -1.
         11    1    3    3    0    0 -0.25524691296E+01 -0.21598705682E+00 -0.19682155463E+01  0.32304212982E+01  0.51100000000E-03 0. -1.
        -11    1    3    3    0    0 -0.34802004736E+01 -0.59061441470E+01 -0.10006365383E+02  0.12129372715E+02  0.51100000000E-03 0.  1.
        -12    1    3    3    0    0 -0.21432831458E+02 -0.24206034387E+02 -0.24985662320E+01  0.32427475977E+02  0.00000000000E+00 0.  1.
</event>
<event>
 7    1  0.9175399E-010  0.4778726E+02  0.7816164E-02  0.1312668E+00
        -11   -1    0    0    0    0  0.00000000000E+00  0.00000000000E+00  0.45593999997E+02  0.45594000000E+02  0.51100000000E-03 0. -1.
         11   -1    0    0    0    0 -0.00000000000E+00 -0.00000000000E+00 -0.45593999997E+02  0.45594000000E+02  0.51100000000E-03 0.  1.
    9900012    2    1    2    0    0  0.14505110443E+02 -0.15653010035E+01  0.40875120632E+02  0.47787264028E+02  0.19999968011E+02 0.  0.
        -12    1    1    2    0    0 -0.14505110443E+02  0.15653010035E+01 -0.40875120632E+02  0.43400735972E+02  0.00000000000E+00 0.  1.
         11    1    3    3    0    0 -0.37051275912E+01  0.94048163700E-01  0.13978655912E+02  0.14461660932E+02  0.51100000000E-03 0. -1.
        -11    1    3    3    0    0  0.73548673767E+01  0.68007789104E+00  0.54653449652E+01  0.91883935439E+01  0.51100000000E-03 0.  1.
         12    1    3    3    0    0  0.10855370658E+02 -0.23394270583E+01  0.21431119754E+02  0.24137209553E+02  0.00000000000E+00 0. -1.
</event>
<event>
 7    1  0.9175399E-010  0.4778727E+02  0.7816164E-02  0.1312668E+00
        -11   -1    0    0    0    0  0.00000000000E+00  0.00000000000E+00  0.45593999997E+02  0.45594000000E+02  0.51100000000E-03 0. -1.
         11   -1    0    0    0    0 -0.00000000000E+00 -0.00000000000E+00 -0.45593999997E+02  0.45594000000E+02  0.51100000000E-03 0.  1.
    9900012    2    1    2    0    0 -0.23599365619E+01 -0.95897992302E+01  0.42262154451E+02  0.47787271334E+02  0.20000001322E+02 0.  0.
        -12    1    1    2    0    0  0.23599365619E+01  0.95897992302E+01 -0.42262154451E+02  0.43400728666E+02  0.00000000000E+00 0.  1.
         11    1    3    3    0    0 -0.76480047900E+01 -0.14614223989E+01  0.22264842124E+02  0.23587092397E+02  0.51100000000E-03 0. -1.
        -11    1    3    3    0    0  0.70454783511E+01 -0.46051974005E+01  0.81515990738E+01  0.11717302420E+02  0.51100000000E-03 0.  1.
        -12    1    3    3    0    0 -0.17574101230E+01 -0.35231794308E+01  0.11845713254E+02  0.12482876517E+02  0.00000000000E+00 0.  1.
</event>
<event>
 7    1  0.9175399E-010  0.4778727E+02  0.7816164E-02  0.1312668E+00
        -11   -1    0    0    0    0  0.00000000000E+00  0.00000000000E+00  0.45593999997E+02  0.45594000000E+02  0.51100000000E-03 0.  1.
         11   -1    0    0    0    0 -0.00000000000E+00 -0.00000000000E+00 -0.45593999997E+02  0.45594000000E+02  0.51100000000E-03 0. -1.
    9900012    2    1    2    0    0 -0.33220229770E+02 -0.45376922913E+01  0.27558105409E+02  0.47787268543E+02  0.19999988593E+02 0.  0.
        -12    1    1    2    0    0  0.33220229770E+02  0.45376922913E+01 -0.27558105409E+02  0.43400731457E+02  0.00000000000E+00 0.  1.
         11    1    3    3    0    0 -0.51531313201E+00 -0.26939191935E+01 -0.76090520726E+00  0.28463529719E+01  0.51100000000E-03 0. -1.
        -11    1    3    3    0    0 -0.25965240871E+02  0.28751762126E+01  0.17913852249E+02  0.31675960513E+02  0.51100000000E-03 0.  1.
         12    1    3    3    0    0 -0.67396757673E+01 -0.47189493104E+01  0.10405158367E+02  0.13264955058E+02  0.00000000000E+00 0. -1.
</event>
<event>
 7    1  0.9175399E-010  0.4778728E+02  0.7816164E-02  0.1312668E+00
        -11   -1    0    0    0    0  0.00000000000E+00  0.00000000000E+00  0.45593999997E+02  0.45594000000E+02  0.51100000000E-03 0. -1.
         11   -1    0    0    0    0 -0.00000000000E+00 -0.00000000000E+00 -0.45593999997E+02  0.45594000000E+02  0.51100000000E-03 0.  1.
    9900012    2    1    2    0    0  0.39981798923E+01 -0.27941645323E+02  0.32968182876E+02  0.47787284937E+02  0.20000063342E+02 0.  0.
        -12    1    1    2    0    0 -0.39981798923E+01  0.27941645323E+02 -0.32968182876E+02  0.43400715063E+02  0.00000000000E+00 0.  1.
         11    1    3    3    0    0 -0.58084108820E+01 -0.52672329938E+01  0.15032712272E+02  0.16954758002E+02  0.51100000000E-03 0. -1.
        -11    1    3    3    0    0  0.44882316904E+01 -0.15404493099E+02  0.10800960545E+02  0.19341752255E+02  0.51100000000E-03 0.  1.
         12    1    3    3    0    0  0.53183590839E+01 -0.72699192303E+01  0.71345100597E+01  0.11490774680E+02  0.00000000000E+00 0. -1.
</event>
<event>
 7    1  0.9175399E-010  0.4778727E+02  0.7816164E-02  0.1312668E+00
        -11   -1    0    0    0    0  0.00000000000E+00  0.00000000000E+00  0.45593999997E+02  0.45594000000E+02  0.51100000000E-03 0. -1.
         11   -1    0    0    0    0 -0.00000000000E+00 -0.00000000000E+00 -0.45593999997E+02  0.45594000000E+02  0.51100000000E-03 0.  1.
    9900012    2    1    2    0    0  0.11881324193E+02 -0.31086805094E+02  0.27857998000E+02  0.47787269959E+02  0.19999995052E+02 0.  0.
        -12    1    1    2    0    0 -0.11881324193E+02  0.31086805094E+02 -0.27857998000E+02  0.43400730041E+02  0.00000000000E+00 0.  1.
         11    1    3    3    0    0  0.53020365534E+00 -0.17621091469E+02  0.15301481027E+02  0.23343506642E+02  0.51100000000E-03 0. -1.
        -11    1    3    3    0    0  0.13171897203E+02 -0.96283811970E+01  0.78562288225E+01  0.18108697688E+02  0.51100000000E-03 0.  1.
        -12    1    3    3    0    0 -0.18207766646E+01 -0.38373324275E+01  0.47002881503E+01  0.63350656285E+01  0.00000000000E+00 0.  1.
</event>
<event>
 7    1  0.9175399E-010  0.4778727E+02  0.7816164E-02  0.1312668E+00
        -11   -1    0    0    0    0  0.00000000000E+00  0.00000000000E+00  0.45593999997E+02  0.45594000000E+02  0.51100000000E-03 0. -1.
         11   -1    0    0    0    0 -0.00000000000E+00 -0.00000000000E+00 -0.45593999997E+02  0.45594000000E+02  0.51100000000E-03 0.  1.
    9900012    2    1    2    0    0 -0.22307872100E+02  0.14008146461E+02  0.34492810608E+02  0.47787270645E+02  0.19999998178E+02 0.  0.
        -12    1    1    2    0    0  0.22307872100E+02 -0.14008146461E+02 -0.34492810608E+02  0.43400729355E+02  0.00000000000E+00 0.  1.
         11    1    3    3    0    0 -0.30461227088E+01  0.35842731051E+01  0.52249431812E+01  0.70303562326E+01  0.51100000000E-03 0. -1.
        -11    1    3    3    0    0 -0.22653664576E+02  0.10228424122E+02  0.26838074308E+02  0.36579931815E+02  0.51100000000E-03 0.  1.
        -12    1    3    3    0    0  0.33919151843E+01  0.19544923421E+00  0.24297931186E+01  0.41769825975E+01  0.00000000000E+00 0.  1.
</event>
<event>
 7    1  0.9175399E-010  0.4778727E+02  0.7816164E-02  0.1312668E+00
        -11   -1    0    0    0    0  0.00000000000E+00  0.00000000000E+00  0.45593999997E+02  0.45594000000E+02  0.51100000000E-03 0. -1.
         11   -1    0    0    0    0 -0.00000000000E+00 -0.00000000000E+00 -0.45593999997E+02  0.45594000000E+02  0.51100000000E-03 0.  1.
    9900012    2    1    2    0    0 -0.66714662848E+01  0.99274328626E+00  0.42873406965E+02  0.47787273896E+02  0.20000013000E+02 0.  0.
        -12    1    1    2    0    0  0.66714662848E+01 -0.99274328626E+00 -0.42873406965E+02  0.43400726104E+02  0.00000000000E+00 0.  1.
         11    1    3    3    0    0  0.45164203087E+00  0.16647969283E+01  0.16116959271E+02  0.16209006933E+02  0.51100000000E-03 0. -1.
        -11    1    3    3    0    0 -0.26689497518E+01  0.65297188329E+01  0.63758643517E+01  0.95085312908E+01  0.51100000000E-03 0.  1.
        -12    1    3    3    0    0 -0.44541585640E+01 -0.72017724749E+01  0.20380583342E+02  0.22069735672E+02  0.00000000000E+00 0.  1.
</event>
<event>
 7    1  0.9175399E-010  0.4778727E+02  0.7816164E-02  0.1312668E+00
        -11   -1    0    0    0    0  0.00000000000E+00  0.00000000000E+00  0.45593999997E+02  0.45594000000E+02  0.51100000000E-03 0. -1.
         11   -1    0    0    0    0 -0.00000000000E+00 -0.00000000000E+00 -0.45593999997E+02  0.45594000000E+02  0.51100000000E-03 0.  1.
    9900012    2    1    2    0    0  0.27393217319E+02 -0.35783057585E+00 -0.33661649609E+02  0.47787273598E+02  0.20000011643E+02 0.  0.
         12    1    1    2    0    0 -0.27393217319E+02  0.35783057585E+00  0.33661649609E+02  0.43400726402E+02  0.00000000000E+00 0. -1.
         11    1    3    3    0    0  0.62886606179E+01 -0.25380358163E+01 -0.22180894201E+02  0.23194416267E+02  0.51100000000E-03 0. -1.
        -11    1    3    3    0    0  0.16786292388E+02  0.15415884269E+01 -0.11158925746E+02  0.20215779260E+02  0.51100000000E-03 0.  1.
        -12    1    3    3    0    0  0.43182643127E+01  0.63861681352E+00 -0.32182966280E+00  0.43770780711E+01  0.00000000000E+00 0.  1.
</event>
<event>
 7    1  0.9175399E-010  0.4778726E+02  0.7816164E-02  0.1312668E+00
        -11   -1    0    0    0    0  0.00000000000E+00  0.00000000000E+00  0.45593999997E+02  0.45594000000E+02  0.51100000000E-03 0. -1.
         11   -1    0    0    0    0 -0.00000000000E+00 -0.00000000000E+00 -0.45593999997E+02  0.45594000000E+02  0.51100000000E-03 0.  1.
    9900012    2    1    2    0    0 -0.14098890059E+02 -0.15950468981E+01  0.41015862247E+02  0.47787264622E+02  0.19999970717E+02 0.  0.
        -12    1    1    2    0    0  0.14098890059E+02  0.15950468981E+01 -0.41015862247E+02  0.43400735378E+02  0.00000000000E+00 0.  1.
         11    1    3    3    0    0 -0.96280128260E+01 -0.62557502881E+01  0.20099574292E+02  0.23147914153E+02  0.51100000000E-03 0. -1.
        -11    1    3    3    0    0 -0.68281478093E+01  0.67517192461E+01  0.13365005020E+02  0.16456994705E+02  0.51100000000E-03 0.  1.
        -12    1    3    3    0    0  0.23572705765E+01 -0.20910158562E+01  0.75512829344E+01  0.81823557633E+01  0.00000000000E+00 0.  1.
</event>
<event>
 7    1  0.1441898E-009  0.4778728E+02  0.7816164E-02  0.1312668E+00
        -11   -1    0    0    0    0  0.00000000000E+00  0.00000000000E+00  0.45593999997E+02  0.45594000000E+02  0.51100000000E-03 0. -1.
         11   -1    0    0    0    0 -0.00000000000E+00 -0.00000000000E+00 -0.45593999997E+02  0.45594000000E+02  0.51100000000E-03 0.  1.
    9900012    2    1    2    0    0  0.73528882262E+01  0.30538548876E+00  0.42772241179E+02  0.47787276031E+02  0.20000022737E+02 0.  0.
        -12    1    1    2    0    0 -0.73528882262E+01 -0.30538548876E+00 -0.42772241179E+02  0.43400723969E+02  0.00000000000E+00 0.  1.
         11    1    3    3    0    0  0.46712339974E+01 -0.34280363181E+01  0.22348973240E+02  0.23087842368E+02  0.51100000000E-03 0. -1.
        -11    1    3    3    0    0 -0.50932864987E+01  0.33671429828E+01  0.91576512604E+01  0.11006443390E+02  0.51100000000E-03 0.  1.
        -12    1    3    3    0    0  0.77749407274E+01  0.36627882400E+00  0.11265616679E+02  0.13692990274E+02  0.00000000000E+00 0.  1.
</event>
<event>
 7    1  0.9175399E-010  0.4778727E+02  0.7816164E-02  0.1312668E+00
        -11   -1    0    0    0    0  0.00000000000E+00  0.00000000000E+00  0.45593999997E+02  0.45594000000E+02  0.51100000000E-03 0. -1.
         11   -1    0    0    0    0 -0.00000000000E+00 -0.00000000000E+00 -0.45593999997E+02  0.45594000000E+02  0.51100000000E-03 0.  1.
    9900012    2    1    2    0    0  0.42631944487E+01  0.12828761559E+01  0.43171786569E+02  0.47787265517E+02  0.19999974797E+02 0.  0.
        -12    1    1    2    0    0 -0.42631944487E+01 -0.12828761559E+01 -0.43171786569E+02  0.43400734483E+02  0.00000000000E+00 0.  1.
         11    1    3    3    0    0 -0.24296251205E+01 -0.23283006873E+01  0.22098430815E+02  0.22353181139E+02  0.51100000000E-03 0. -1.
        -11    1    3    3    0    0  0.32763436238E+01  0.21917297061E+01 -0.96865247956E-01  0.39430305329E+01  0.51100000000E-03 0.  1.
        -12    1    3    3    0    0  0.34164759454E+01  0.14194471370E+01  0.21170221002E+02  0.21491053844E+02  0.00000000000E+00 0.  1.
</event>
<event>
 7    1  0.9175399E-010  0.4778727E+02  0.7816164E-02  0.1312668E+00
        -11   -1    0    0    0    0  0.00000000000E+00  0.00000000000E+00  0.45593999997E+02  0.45594000000E+02  0.51100000000E-03 0. -1.
         11   -1    0    0    0    0 -0.00000000000E+00 -0.00000000000E+00 -0.45593999997E+02  0.45594000000E+02  0.51100000000E-03 0.  1.
    9900012    2    1    2    0    0 -0.71251590875E+01 -0.65847938193E+01  0.42302432752E+02  0.47787271683E+02  0.20000002913E+02 0.  0.
        -12    1    1    2    0    0  0.71251590875E+01  0.65847938193E+01 -0.42302432752E+02  0.43400728317E+02  0.00000000000E+00 0.  1.
         11    1    3    3    0    0 -0.75684946622E+01  0.28410461518E+01  0.19977822023E+02  0.21551497111E+02  0.51100000000E-03 0. -1.
        -11    1    3    3    0    0  0.15328418075E+01 -0.11352912357E+02  0.19824077650E+02  0.22896119276E+02  0.51100000000E-03 0.  1.
         12    1    3    3    0    0 -0.10895062328E+01  0.19270723863E+01  0.25005330798E+01  0.33396552960E+01  0.00000000000E+00 0. -1.
</event>
<event>
 7    1  0.9175399E-010  0.4778728E+02  0.7816164E-02  0.1312668E+00
        -11   -1    0    0    0    0  0.00000000000E+00  0.00000000000E+00  0.45593999997E+02  0.45594000000E+02  0.51100000000E-03 0.  1.
         11   -1    0    0    0    0 -0.00000000000E+00 -0.00000000000E+00 -0.45593999997E+02  0.45594000000E+02  0.51100000000E-03 0. -1.
    9900012    2    1    2    0    0 -0.20246351392E+02  0.37887011336E+02  0.61872817648E+01  0.47787276177E+02  0.20000023402E+02 0.  0.
        -12    1    1    2    0    0  0.20246351392E+02 -0.37887011336E+02 -0.61872817648E+01  0.43400723823E+02  0.00000000000E+00 0.  1.
         11    1    3    3    0    0 -0.20507066288E+02  0.35357883521E+02  0.21778537256E+01  0.40932416762E+02  0.51100000000E-03 0. -1.
        -11    1    3    3    0    0  0.44716898943E+00  0.36639663024E+01  0.43016828151E+01  0.56682523297E+01  0.51100000000E-03 0.  1.
         12    1    3    3    0    0 -0.18645409365E+00 -0.11348384874E+01 -0.29225477594E+00  0.11866070856E+01  0.00000000000E+00 0. -1.
</event>
<event>
 7    1  0.9175399E-010  0.4778727E+02  0.7816164E-02  0.1312668E+00
        -11   -1    0    0    0    0  0.00000000000E+00  0.00000000000E+00  0.45593999997E+02  0.45594000000E+02  0.51100000000E-03 0. -1.
         11   -1    0    0    0    0 -0.00000000000E+00 -0.00000000000E+00 -0.45593999997E+02  0.45594000000E+02  0.51100000000E-03 0.  1.
    9900012    2    1    2    0    0  0.24590729362E+02 -0.31337938071E+02 -0.17229431828E+02  0.47787266663E+02  0.19999980022E+02 0.  0.
         12    1    1    2    0    0 -0.24590729362E+02  0.31337938071E+02  0.17229431828E+02  0.43400733337E+02  0.00000000000E+00 0. -1.
         11    1    3    3    0    0 -0.36189867738E+00 -0.66050988930E-01 -0.13663452450E+01  0.14150028182E+01  0.51100000000E-03 0. -1.
        -11    1    3    3    0    0  0.65585712870E+00 -0.12259993457E+02 -0.75789378038E+01  0.14428370893E+02  0.51100000000E-03 0.  1.
        -12    1    3    3    0    0  0.24296770911E+02 -0.19011893625E+02 -0.82841487790E+01  0.31943892951E+02  0.00000000000E+00 0.  1.
</event>
<event>
 7    1  0.9175399E-010  0.4778727E+02  0.7816164E-02  0.1312668E+00
        -11   -1    0    0    0    0  0.00000000000E+00  0.00000000000E+00  0.45593999997E+02  0.45594000000E+02  0.51100000000E-03 0. -1.
         11   -1    0    0    0    0 -0.00000000000E+00 -0.00000000000E+00 -0.45593999997E+02  0.45594000000E+02  0.51100000000E-03 0.  1.
    9900012    2    1    2    0    0  0.34526113149E+01 -0.40720453263E+01  0.43071119199E+02  0.47787269740E+02  0.19999994053E+02 0.  0.
        -12    1    1    2    0    0 -0.34526113149E+01  0.40720453263E+01 -0.43071119199E+02  0.43400730260E+02  0.00000000000E+00 0.  1.
         11    1    3    3    0    0  0.38336725590E+01 -0.14503669396E+01  0.11313840503E+02  0.12033436614E+02  0.51100000000E-03 0. -1.
        -11    1    3    3    0    0  0.22139533064E+01 -0.77998904723E-01 -0.12523426831E+01  0.25448055975E+01  0.51100000000E-03 0.  1.
        -12    1    3    3    0    0 -0.25950145504E+01 -0.25436794820E+01  0.33009621379E+02  0.33209027528E+02  0.00000000000E+00 0.  1.
</event>
<event>
 7    1  0.9175399E-010  0.4778726E+02  0.7816164E-02  0.1312668E+00
        -11   -1    0    0    0    0  0.00000000000E+00  0.00000000000E+00  0.45593999997E+02  0.45594000000E+02  0.51100000000E-03 0. -1.
         11   -1    0    0    0    0 -0.00000000000E+00 -0.00000000000E+00 -0.45593999997E+02  0.45594000000E+02  0.51100000000E-03 0.  1.
    9900012    2    1    2    0    0  0.32943557752E+02  0.20690608408E+02  0.19241753680E+02  0.47787258551E+02  0.19999943036E+02 0.  0.
        -12    1    1    2    0    0 -0.32943557752E+02 -0.20690608408E+02 -0.19241753680E+02  0.43400741449E+02  0.00000000000E+00 0.  1.
         11    1    3    3    0    0  0.12781962226E+02  0.17757086861E+01  0.47484782280E+01  0.13750627093E+02  0.51100000000E-03 0. -1.
        -11    1    3    3    0    0  0.15116900622E+02  0.18215301706E+02  0.64802156639E+01  0.24542027136E+02  0.51100000000E-03 0.  1.
        -12    1    3    3    0    0  0.50446949041E+01  0.69959801572E+00  0.80130597882E+01  0.94946043219E+01  0.00000000000E+00 0.  1.
</event>
<event>
 7    1  0.9175399E-010  0.4778727E+02  0.7816164E-02  0.1312668E+00
        -11   -1    0    0    0    0  0.00000000000E+00  0.00000000000E+00  0.45593999997E+02  0.45594000000E+02  0.51100000000E-03 0. -1.
         11   -1    0    0    0    0 -0.00000000000E+00 -0.00000000000E+00 -0.45593999997E+02  0.45594000000E+02  0.51100000000E-03 0.  1.
    9900012    2    1    2    0    0  0.23266836823E+02 -0.23384394575E+02  0.28203689783E+02  0.47787265873E+02  0.19999976420E+02 0.  0.
        -12    1    1    2    0    0 -0.23266836823E+02  0.23384394575E+02 -0.28203689783E+02  0.43400734127E+02  0.00000000000E+00 0.  1.
         11    1    3    3    0    0  0.20633458267E+02 -0.15646665560E+02  0.23417682474E+02  0.34913401380E+02  0.51100000000E-03 0. -1.
        -11    1    3    3    0    0 -0.75673583939E+00  0.13318349907E+01 -0.76590173248E+00  0.17126118352E+01  0.51100000000E-03 0.  1.
         12    1    3    3    0    0  0.33901143954E+01 -0.90695640064E+01  0.55519090421E+01  0.11161252658E+02  0.00000000000E+00 0. -1.
</event>
<event>
 7    1  0.9175399E-010  0.4778727E+02  0.7816164E-02  0.1312668E+00
        -11   -1    0    0    0    0  0.00000000000E+00  0.00000000000E+00  0.45593999997E+02  0.45594000000E+02  0.51100000000E-03 0. -1.
         11   -1    0    0    0    0 -0.00000000000E+00 -0.00000000000E+00 -0.45593999997E+02  0.45594000000E+02  0.51100000000E-03 0.  1.
    9900012    2    1    2    0    0  0.89975791866E+01  0.23606139168E+02 -0.35290469281E+02  0.47787268903E+02  0.19999990237E+02 0.  0.
         12    1    1    2    0    0 -0.89975791866E+01 -0.23606139168E+02  0.35290469281E+02  0.43400731097E+02  0.00000000000E+00 0. -1.
         11    1    3    3    0    0 -0.20466958080E+01  0.10329766650E+02 -0.25470932517E+02  0.27561956503E+02  0.51100000000E-03 0.  1.
        -11    1    3    3    0    0  0.74738951253E+01  0.81665524907E+01 -0.82238838574E+01  0.13790719847E+02  0.51100000000E-03 0. -1.
        -12    1    3    3    0    0  0.35703798693E+01  0.51098200277E+01 -0.15956529075E+01  0.64345925533E+01  0.00000000000E+00 0.  1.
</event>
<event>
 7    1  0.9175399E-010  0.4778727E+02  0.7816164E-02  0.1312668E+00
        -11   -1    0    0    0    0  0.00000000000E+00  0.00000000000E+00  0.45593999997E+02  0.45594000000E+02  0.51100000000E-03 0. -1.
         11   -1    0    0    0    0 -0.00000000000E+00 -0.00000000000E+00 -0.45593999997E+02  0.45594000000E+02  0.51100000000E-03 0.  1.
    9900012    2    1    2    0    0 -0.11925061711E+01  0.33887639244E+02 -0.27089281338E+02  0.47787270422E+02  0.19999997160E+02 0.  0.
         12    1    1    2    0    0  0.11925061711E+01 -0.33887639244E+02  0.27089281338E+02  0.43400729578E+02  0.00000000000E+00 0. -1.
         11    1    3    3    0    0  0.24659669932E+01 -0.70649641950E+00  0.91327200079E+00  0.27229022037E+01  0.51100000000E-03 0. -1.
        -11    1    3    3    0    0 -0.48099457284E+01  0.20332195042E+02 -0.18320782156E+02  0.27788213188E+02  0.51100000000E-03 0.  1.
        -12    1    3    3    0    0  0.11514725641E+01  0.14261940622E+02 -0.96817711830E+01  0.17276155030E+02  0.00000000000E+00 0.  1.
</event>
<event>
 7    1  0.9175399E-010  0.4778727E+02  0.7816164E-02  0.1312668E+00
        -11   -1    0    0    0    0  0.00000000000E+00  0.00000000000E+00  0.45593999997E+02  0.45594000000E+02  0.51100000000E-03 0. -1.
         11   -1    0    0    0    0 -0.00000000000E+00 -0.00000000000E+00 -0.45593999997E+02  0.45594000000E+02  0.51100000000E-03 0.  1.
    9900012    2    1    2    0    0  0.30953089146E+02 -0.37556880703E+01  0.30189807821E+02  0.47787269397E+02  0.19999992491E+02 0.  0.
        -12    1    1    2    0    0 -0.30953089146E+02  0.37556880703E+01 -0.30189807821E+02  0.43400730603E+02  0.00000000000E+00 0.  1.
         11    1    3    3    0    0  0.18606297347E+01 -0.25271322749E+01 -0.14800835874E+01  0.34697245181E+01  0.51100000000E-03 0. -1.
        -11    1    3    3    0    0  0.20435185364E+02  0.37137173971E+01  0.18608456041E+02  0.27886612097E+02  0.51100000000E-03 0.  1.
         12    1    3    3    0    0  0.86572740478E+01 -0.49422731926E+01  0.13061435367E+02  0.16430932782E+02  0.00000000000E+00 0. -1.
</event>
<event>
 7    1  0.9175399E-010  0.4778728E+02  0.7816164E-02  0.1312668E+00
        -11   -1    0    0    0    0  0.00000000000E+00  0.00000000000E+00  0.45593999997E+02  0.45594000000E+02  0.51100000000E-03 0. -1.
         11   -1    0    0    0    0 -0.00000000000E+00 -0.00000000000E+00 -0.45593999997E+02  0.45594000000E+02  0.51100000000E-03 0.  1.
    9900012    2    1    2    0    0 -0.60824197010E-01 -0.19174467301E+02  0.38935316279E+02  0.47787277084E+02  0.20000027538E+02 0.  0.
        -12    1    1    2    0    0  0.60824197010E-01  0.19174467301E+02 -0.38935316279E+02  0.43400722916E+02  0.00000000000E+00 0.  1.
         11    1    3    3    0    0  0.78425246061E+01 -0.17571535622E+02  0.29290377255E+02  0.35045545456E+02  0.51100000000E-03 0. -1.
        -11    1    3    3    0    0 -0.40856370182E+01 -0.17996501948E+01  0.58069499698E+01  0.73247415573E+01  0.51100000000E-03 0.  1.
         12    1    3    3    0    0 -0.38177117850E+01  0.19671851570E+00  0.38379890546E+01  0.54169900711E+01  0.00000000000E+00 0. -1.
</event>
<event>
 7    1  0.9175399E-010  0.4778726E+02  0.7816164E-02  0.1312668E+00
        -11   -1    0    0    0    0  0.00000000000E+00  0.00000000000E+00  0.45593999997E+02  0.45594000000E+02  0.51100000000E-03 0. -1.
         11   -1    0    0    0    0 -0.00000000000E+00 -0.00000000000E+00 -0.45593999997E+02  0.45594000000E+02  0.51100000000E-03 0.  1.
    9900012    2    1    2    0    0 -0.21102624809E+02  0.31328955932E+02  0.21372888513E+02  0.47787255570E+02  0.19999929448E+02 0.  0.
        -12    1    1    2    0    0  0.21102624809E+02 -0.31328955932E+02 -0.21372888513E+02  0.43400744430E+02  0.00000000000E+00 0.  1.
         11    1    3    3    0    0  0.15645358836E+01  0.75541932563E+01  0.69760910941E+01  0.10400935318E+02  0.51100000000E-03 0. -1.
        -11    1    3    3    0    0 -0.10161265897E+02  0.76935372852E+01  0.55547676936E+00  0.12757366315E+02  0.51100000000E-03 0.  1.
         12    1    3    3    0    0 -0.12505894796E+02  0.16081225391E+02  0.13841320650E+02  0.24628953937E+02  0.00000000000E+00 0. -1.
</event>
<event>
 7    1  0.9175399E-010  0.4778727E+02  0.7816164E-02  0.1312668E+00
        -11   -1    0    0    0    0  0.00000000000E+00  0.00000000000E+00  0.45593999997E+02  0.45594000000E+02  0.51100000000E-03 0. -1.
         11   -1    0    0    0    0 -0.00000000000E+00 -0.00000000000E+00 -0.45593999997E+02  0.45594000000E+02  0.51100000000E-03 0.  1.
    9900012    2    1    2    0    0 -0.27046323049E+02 -0.13545192884E+02 -0.31123102266E+02  0.47787270335E+02  0.19999996767E+02 0.  0.
         12    1    1    2    0    0  0.27046323049E+02  0.13545192884E+02  0.31123102266E+02  0.43400729665E+02  0.00000000000E+00 0. -1.
         11    1    3    3    0    0 -0.13899733597E+01 -0.25445056069E+01  0.31502344114E+00  0.29164661413E+01  0.51100000000E-03 0. -1.
        -11    1    3    3    0    0 -0.15733672778E+02  0.38985615694E+00 -0.10006448206E+02  0.18650186403E+02  0.51100000000E-03 0.  1.
        -12    1    3    3    0    0 -0.99226769113E+01 -0.11390543434E+02 -0.21431677502E+02  0.26220617791E+02  0.00000000000E+00 0.  1.
</event>
<event>
 7    1  0.9175399E-010  0.4778727E+02  0.7816164E-02  0.1312668E+00
        -11   -1    0    0    0    0  0.00000000000E+00  0.00000000000E+00  0.45593999997E+02  0.45594000000E+02  0.51100000000E-03 0.  1.
         11   -1    0    0    0    0 -0.00000000000E+00 -0.00000000000E+00 -0.45593999997E+02  0.45594000000E+02  0.51100000000E-03 0. -1.
    9900012    2    1    2    0    0  0.35747782856E+02  0.17680967219E+02 -0.17120233481E+02  0.47787274484E+02  0.20000015680E+02 0.  0.
        -12    1    1    2    0    0 -0.35747782856E+02 -0.17680967219E+02  0.17120233481E+02  0.43400725516E+02  0.00000000000E+00 0.  1.
         11    1    3    3    0    0  0.34398075883E+02  0.15505590540E+02 -0.88887105874E+01  0.38764160492E+02  0.51100000000E-03 0. -1.
        -11    1    3    3    0    0  0.15633823698E+01  0.15863383737E+01 -0.80760151679E+01  0.83775088853E+01  0.51100000000E-03 0.  1.
         12    1    3    3    0    0 -0.21367539714E+00  0.58903830561E+00 -0.15550772561E+00  0.64560510650E+00  0.00000000000E+00 0. -1.
</event>
<event>
 7    1  0.9175399E-010  0.4778728E+02  0.7816164E-02  0.1312668E+00
        -11   -1    0    0    0    0  0.00000000000E+00  0.00000000000E+00  0.45593999997E+02  0.45594000000E+02  0.51100000000E-03 0. -1.
         11   -1    0    0    0    0 -0.00000000000E+00 -0.00000000000E+00 -0.45593999997E+02  0.45594000000E+02  0.51100000000E-03 0.  1.
    9900012    2    1    2    0    0  0.15644709830E+02  0.17053813822E+02 -0.36715571748E+02  0.47787277422E+02  0.20000029077E+02 0.  0.
         12    1    1    2    0    0 -0.15644709830E+02 -0.17053813822E+02  0.36715571748E+02  0.43400722578E+02  0.00000000000E+00 0. -1.
         11    1    3    3    0    0  0.68275804590E+01 -0.18096152278E+01 -0.63061280705E+01  0.94687810039E+01  0.51100000000E-03 0. -1.
        -11    1    3    3    0    0  0.44169860502E+01  0.18051265666E+02 -0.26560698000E+02  0.32416487108E+02  0.51100000000E-03 0.  1.
        -12    1    3    3    0    0  0.44001433209E+01  0.81216338385E+00 -0.38487456770E+01  0.59020093098E+01  0.00000000000E+00 0.  1.
</event>
<event>
 7    1  0.1322524E-009  0.4778727E+02  0.7816164E-02  0.1312668E+00
        -11   -1    0    0    0    0  0.00000000000E+00  0.00000000000E+00  0.45593999997E+02  0.45594000000E+02  0.51100000000E-03 0. -1.
         11   -1    0    0    0    0 -0.00000000000E+00 -0.00000000000E+00 -0.45593999997E+02  0.45594000000E+02  0.51100000000E-03 0.  1.
    9900012    2    1    2    0    0 -0.55351809773E+01  0.22077167158E+02 -0.36953809552E+02  0.47787267534E+02  0.19999983993E+02 0.  0.
         12    1    1    2    0    0  0.55351809773E+01 -0.22077167158E+02  0.36953809552E+02  0.43400732466E+02  0.00000000000E+00 0. -1.
         11    1    3    3    0    0  0.10593250609E+01 -0.22546643734E+01  0.20169419602E+00  0.24992722603E+01  0.51100000000E-03 0. -1.
        -11    1    3    3    0    0 -0.49550383848E+01  0.92708919291E+01 -0.18252646974E+02  0.21063261010E+02  0.51100000000E-03 0.  1.
         12    1    3    3    0    0 -0.16394676534E+01  0.15060939603E+02 -0.18902856775E+02  0.24224734264E+02  0.00000000000E+00 0. -1.
</event>
<event>
 7    1  0.9175399E-010  0.4778723E+02  0.7816164E-02  0.1312668E+00
        -11   -1    0    0    0    0  0.00000000000E+00  0.00000000000E+00  0.45593999997E+02  0.45594000000E+02  0.51100000000E-03 0. -1.
         11   -1    0    0    0    0 -0.00000000000E+00 -0.00000000000E+00 -0.45593999997E+02  0.45594000000E+02  0.51100000000E-03 0.  1.
    9900012    2    1    2    0    0  0.21064109442E+02  0.10621422931E+02  0.36429599440E+02  0.47787227576E+02  0.19999801810E+02 0.  0.
        -12    1    1    2    0    0 -0.21064109442E+02 -0.10621422931E+02 -0.36429599440E+02  0.43400772424E+02  0.00000000000E+00 0.  1.
         11    1    3    3    0    0  0.15348614056E+02  0.11973074411E+02  0.20235185821E+02  0.28078411810E+02  0.51100000000E-03 0. -1.
        -11    1    3    3    0    0  0.60052391007E+01  0.21328633569E+01  0.14467908419E+02  0.15809249730E+02  0.51100000000E-03 0.  1.
         12    1    3    3    0    0 -0.28974371453E+00 -0.34845148366E+01  0.17265051994E+01  0.38995660361E+01  0.00000000000E+00 0. -1.
</event>
<event>
 7    1  0.9175399E-010  0.4778726E+02  0.7816164E-02  0.1312668E+00
        -11   -1    0    0    0    0  0.00000000000E+00  0.00000000000E+00  0.45593999997E+02  0.45594000000E+02  0.51100000000E-03 0.  1.
         11   -1    0    0    0    0 -0.00000000000E+00 -0.00000000000E+00 -0.45593999997E+02  0.45594000000E+02  0.51100000000E-03 0. -1.
    9900012    2    1    2    0    0 -0.37298436689E+02 -0.47522100776E+01  0.21676423804E+02  0.47787260041E+02  0.19999949830E+02 0.  0.
        -12    1    1    2    0    0  0.37298436689E+02  0.47522100776E+01 -0.21676423804E+02  0.43400739959E+02  0.00000000000E+00 0.  1.
         11    1    3    3    0    0 -0.25713640062E+02  0.23601079386E+01  0.12725054109E+02  0.28786948380E+02  0.51100000000E-03 0. -1.
        -11    1    3    3    0    0 -0.92929101949E+01 -0.73855421841E+01  0.10796112663E+02  0.16045574534E+02  0.51100000000E-03 0.  1.
         12    1    3    3    0    0 -0.22918864323E+01  0.27322416781E+00 -0.18447429684E+01  0.29547371260E+01  0.00000000000E+00 0. -1.
</event>
<event>
 7    1  0.9175399E-010  0.4778727E+02  0.7816164E-02  0.1312668E+00
        -11   -1    0    0    0    0  0.00000000000E+00  0.00000000000E+00  0.45593999997E+02  0.45594000000E+02  0.51100000000E-03 0. -1.
         11   -1    0    0    0    0 -0.00000000000E+00 -0.00000000000E+00 -0.45593999997E+02  0.45594000000E+02  0.51100000000E-03 0.  1.
    9900012    2    1    2    0    0 -0.23626801529E+01 -0.19491187894E+02 -0.38705742997E+02  0.47787271850E+02  0.20000003672E+02 0.  0.
         12    1    1    2    0    0  0.23626801529E+01  0.19491187894E+02  0.38705742997E+02  0.43400728150E+02  0.00000000000E+00 0. -1.
         11    1    3    3    0    0  0.54512967856E+01 -0.15961776183E+01 -0.92396578966E+01  0.10845999167E+02  0.51100000000E-03 0.  1.
        -11    1    3    3    0    0 -0.61211467200E+01 -0.18516158232E+02 -0.22640785477E+02  0.29881795798E+02  0.51100000000E-03 0. -1.
         12    1    3    3    0    0 -0.16928302185E+01  0.62114795630E+00 -0.68252996234E+01  0.70594768844E+01  0.00000000000E+00 0. -1.
</event>
<event>
 7    1  0.9175399E-010  0.4778727E+02  0.7816164E-02  0.1312668E+00
        -11   -1    0    0    0    0  0.00000000000E+00  0.00000000000E+00  0.45593999997E+02  0.45594000000E+02  0.51100000000E-03 0. -1.
         11   -1    0    0    0    0 -0.00000000000E+00 -0.00000000000E+00 -0.45593999997E+02  0.45594000000E+02  0.51100000000E-03 0.  1.
    9900012    2    1    2    0    0 -0.14796455537E+02  0.12947019230E+02 -0.38691897200E+02  0.47787270601E+02  0.19999997978E+02 0.  0.
         12    1    1    2    0    0  0.14796455537E+02 -0.12947019230E+02  0.38691897200E+02  0.43400729399E+02  0.00000000000E+00 0. -1.
         11    1    3    3    0    0  0.40965296830E+00  0.17370745987E+01  0.15256088867E+01  0.23479196009E+01  0.51100000000E-03 0. -1.
        -11    1    3    3    0    0 -0.64722278925E+01  0.50368284813E+01 -0.28122116378E+02  0.29293562516E+02  0.51100000000E-03 0.  1.
        -12    1    3    3    0    0 -0.87338806126E+01  0.61731161500E+01 -0.12095389710E+02  0.16145788484E+02  0.00000000000E+00 0.  1.
</event>
<event>
 7    1  0.9175399E-010  0.4778726E+02  0.7816164E-02  0.1312668E+00
        -11   -1    0    0    0    0  0.00000000000E+00  0.00000000000E+00  0.45593999997E+02  0.45594000000E+02  0.51100000000E-03 0. -1.
         11   -1    0    0    0    0 -0.00000000000E+00 -0.00000000000E+00 -0.45593999997E+02  0.45594000000E+02  0.51100000000E-03 0.  1.
    9900012    2    1    2    0    0 -0.28789378903E+02 -0.21988857917E+02  0.23901592116E+02  0.47787259040E+02  0.19999945269E+02 0.  0.
        -12    1    1    2    0    0  0.28789378903E+02  0.21988857917E+02 -0.23901592116E+02  0.43400740960E+02  0.00000000000E+00 0.  1.
         11    1    3    3    0    0  0.15435338668E+01 -0.33139405514E+01  0.29482875708E+01  0.46964985508E+01  0.51100000000E-03 0. -1.
        -11    1    3    3    0    0 -0.26551330384E+02 -0.10342393261E+02  0.15469417135E+02  0.32422848584E+02  0.51100000000E-03 0.  1.
        -12    1    3    3    0    0 -0.37815823858E+01 -0.83325241045E+01  0.54838874109E+01  0.10667911906E+02  0.00000000000E+00 0.  1.
</event>
<event>
 7    1  0.9175399E-010  0.4778728E+02  0.7816164E-02  0.1312668E+00
        -11   -1    0    0    0    0  0.00000000000E+00  0.00000000000E+00  0.45593999997E+02  0.45594000000E+02  0.51100000000E-03 0. -1.
         11   -1    0    0    0    0 -0.00000000000E+00 -0.00000000000E+00 -0.45593999997E+02  0.45594000000E+02  0.51100000000E-03 0.  1.
    9900012    2    1    2    0    0  0.33152367689E+02  0.94677901753E+01  0.26361037232E+02  0.47787276295E+02  0.20000023939E+02 0.  0.
        -12    1    1    2    0    0 -0.33152367689E+02 -0.94677901753E+01 -0.26361037232E+02  0.43400723705E+02  0.00000000000E+00 0.  1.
         11    1    3    3    0    0  0.31796297427E+01 -0.41860374193E+00  0.58326287781E+01  0.66561875813E+01  0.51100000000E-03 0.  1.
        -11    1    3    3    0    0  0.10488605090E+02  0.88237853616E+01  0.16058307322E+02  0.21112537961E+02  0.51100000000E-03 0. -1.
        -12    1    3    3    0    0  0.19484132857E+02  0.10626085557E+01  0.44701011317E+01  0.20018550753E+02  0.00000000000E+00 0.  1.
</event>
<event>
 7    1  0.9175399E-010  0.4778727E+02  0.7816164E-02  0.1312668E+00
        -11   -1    0    0    0    0  0.00000000000E+00  0.00000000000E+00  0.45593999997E+02  0.45594000000E+02  0.51100000000E-03 0. -1.
         11   -1    0    0    0    0 -0.00000000000E+00 -0.00000000000E+00 -0.45593999997E+02  0.45594000000E+02  0.51100000000E-03 0.  1.
    9900012    2    1    2    0    0  0.16539876415E+02 -0.11884401042E+02 -0.38325145894E+02  0.47787270655E+02  0.19999998222E+02 0.  0.
         12    1    1    2    0    0 -0.16539876415E+02  0.11884401042E+02  0.38325145894E+02  0.43400729345E+02  0.00000000000E+00 0. -1.
         11    1    3    3    0    0  0.11166035779E+02  0.42085749771E+00 -0.76301402844E+01  0.13530577116E+02  0.51100000000E-03 0. -1.
        -11    1    3    3    0    0  0.65155402767E+01 -0.10106301456E+02 -0.28552287164E+02  0.30981005418E+02  0.51100000000E-03 0.  1.
         12    1    3    3    0    0 -0.11416996409E+01 -0.21989570835E+01 -0.21427184458E+01  0.32756881206E+01  0.00000000000E+00 0. -1.
</event>
<event>
 7    1  0.9175399E-010  0.4778727E+02  0.7816164E-02  0.1312668E+00
        -11   -1    0    0    0    0  0.00000000000E+00  0.00000000000E+00  0.45593999997E+02  0.45594000000E+02  0.51100000000E-03 0. -1.
         11   -1    0    0    0    0 -0.00000000000E+00 -0.00000000000E+00 -0.45593999997E+02  0.45594000000E+02  0.51100000000E-03 0.  1.
    9900012    2    1    2    0    0 -0.85963671589E+01 -0.20443826586E+02  0.37306509478E+02  0.47787271627E+02  0.20000002658E+02 0.  0.
        -12    1    1    2    0    0  0.85963671589E+01  0.20443826586E+02 -0.37306509478E+02  0.43400728373E+02  0.00000000000E+00 0.  1.
         11    1    3    3    0    0 -0.35226750083E+01 -0.15781362837E+02  0.25384910408E+02  0.30097413990E+02  0.51100000000E-03 0. -1.
        -11    1    3    3    0    0 -0.61839366513E+01  0.17217584919E+01  0.45110059204E+01  0.78456803074E+01  0.51100000000E-03 0.  1.
        -12    1    3    3    0    0  0.11102445007E+01 -0.63842222403E+01  0.74105931499E+01  0.98441773297E+01  0.00000000000E+00 0.  1.
</event>
<event>
 7    1  0.9175399E-010  0.4778727E+02  0.7816164E-02  0.1312668E+00
        -11   -1    0    0    0    0  0.00000000000E+00  0.00000000000E+00  0.45593999997E+02  0.45594000000E+02  0.51100000000E-03 0.  1.
         11   -1    0    0    0    0 -0.00000000000E+00 -0.00000000000E+00 -0.45593999997E+02  0.45594000000E+02  0.51100000000E-03 0. -1.
    9900012    2    1    2    0    0  0.40099346095E+02  0.16287771328E+02  0.32208889129E+01  0.47787272155E+02  0.20000005063E+02 0.  0.
         12    1    1    2    0    0 -0.40099346095E+02 -0.16287771328E+02 -0.32208889129E+01  0.43400727845E+02  0.00000000000E+00 0. -1.
         11    1    3    3    0    0  0.33934411688E+01  0.84206160309E+01 -0.17180015059E+01  0.92397914880E+01  0.51100000000E-03 0. -1.
        -11    1    3    3    0    0  0.25166341837E+02  0.84918083838E+01  0.20743494207E+01  0.26641293078E+02  0.51100000000E-03 0.  1.
         12    1    3    3    0    0  0.11539563090E+02 -0.62465308645E+00  0.28645409981E+01  0.11906187589E+02  0.00000000000E+00 0. -1.
</event>
<event>
 7    1  0.9175399E-010  0.4778726E+02  0.7816164E-02  0.1312668E+00
        -11   -1    0    0    0    0  0.00000000000E+00  0.00000000000E+00  0.45593999997E+02  0.45594000000E+02  0.51100000000E-03 0. -1.
         11   -1    0    0    0    0 -0.00000000000E+00 -0.00000000000E+00 -0.45593999997E+02  0.45594000000E+02  0.51100000000E-03 0.  1.
    9900012    2    1    2    0    0 -0.21819248126E+02  0.32294867853E+02 -0.19094135418E+02  0.47787261690E+02  0.19999957351E+02 0.  0.
         12    1    1    2    0    0  0.21819248126E+02 -0.32294867853E+02  0.19094135418E+02  0.43400738310E+02  0.00000000000E+00 0. -1.
         11    1    3    3    0    0 -0.23044977728E+02  0.24888735936E+02 -0.96363772920E+01  0.35261593024E+02  0.51100000000E-03 0.  1.
        -11    1    3    3    0    0  0.17115302064E+01  0.36939449541E+01 -0.68312416961E+01  0.79523850726E+01  0.51100000000E-03 0. -1.
        -12    1    3    3    0    0 -0.48580060464E+00  0.37121869627E+01 -0.26265164298E+01  0.45732835939E+01  0.00000000000E+00 0.  1.
</event>
<event>
 7    1  0.9175399E-010  0.4778727E+02  0.7816164E-02  0.1312668E+00
        -11   -1    0    0    0    0  0.00000000000E+00  0.00000000000E+00  0.45593999997E+02  0.45594000000E+02  0.51100000000E-03 0. -1.
         11   -1    0    0    0    0 -0.00000000000E+00 -0.00000000000E+00 -0.45593999997E+02  0.45594000000E+02  0.51100000000E-03 0.  1.
    9900012    2    1    2    0    0  0.33417951652E+02 -0.75595413711E+01 -0.26640516943E+02  0.47787270728E+02  0.19999998556E+02 0.  0.
         12    1    1    2    0    0 -0.33417951652E+02  0.75595413711E+01  0.26640516943E+02  0.43400729272E+02  0.00000000000E+00 0. -1.
         11    1    3    3    0    0  0.14082755947E+02 -0.42259259499E+01 -0.20632818081E+02  0.25335659601E+02  0.51100000000E-03 0. -1.
        -11    1    3    3    0    0  0.22150245881E+01 -0.39075116167E+01 -0.15463789053E+01  0.47503967141E+01  0.51100000000E-03 0.  1.
         12    1    3    3    0    0  0.17120171117E+02  0.57389619555E+00 -0.44613199569E+01  0.17701214413E+02  0.00000000000E+00 0. -1.
</event>
<event>
 7    1  0.9175399E-010  0.4778727E+02  0.7816164E-02  0.1312668E+00
        -11   -1    0    0    0    0  0.00000000000E+00  0.00000000000E+00  0.45593999997E+02  0.45594000000E+02  0.51100000000E-03 0. -1.
         11   -1    0    0    0    0 -0.00000000000E+00 -0.00000000000E+00 -0.45593999997E+02  0.45594000000E+02  0.51100000000E-03 0.  1.
    9900012    2    1    2    0    0 -0.10609732981E+02  0.23854712277E+02 -0.34670009361E+02  0.47787270964E+02  0.19999999632E+02 0.  0.
         12    1    1    2    0    0  0.10609732981E+02 -0.23854712277E+02  0.34670009361E+02  0.43400729036E+02  0.00000000000E+00 0. -1.
         11    1    3    3    0    0 -0.97521701775E+01  0.32049527925E+01 -0.70166761460E+01  0.12434238616E+02  0.51100000000E-03 0. -1.
        -11    1    3    3    0    0  0.26141143307E+01  0.12009887413E+02 -0.12244180813E+02  0.17349090854E+02  0.51100000000E-03 0.  1.
        -12    1    3    3    0    0 -0.34716771343E+01  0.86398720718E+01 -0.15409152402E+02  0.18003941493E+02  0.00000000000E+00 0.  1.
</event>
<event>
 7    1  0.9175399E-010  0.4778727E+02  0.7816164E-02  0.1312668E+00
        -11   -1    0    0    0    0  0.00000000000E+00  0.00000000000E+00  0.45593999997E+02  0.45594000000E+02  0.51100000000E-03 0. -1.
         11   -1    0    0    0    0 -0.00000000000E+00 -0.00000000000E+00 -0.45593999997E+02  0.45594000000E+02  0.51100000000E-03 0.  1.
    9900012    2    1    2    0    0  0.25281937485E+02 -0.47722542856E+01  0.34952431890E+02  0.47787271100E+02  0.20000000256E+02 0.  0.
        -12    1    1    2    0    0 -0.25281937485E+02  0.47722542856E+01 -0.34952431890E+02  0.43400728900E+02  0.00000000000E+00 0.  1.
         11    1    3    3    0    0  0.15951778648E+02  0.29791291205E+01  0.16598766011E+02  0.23213217909E+02  0.51100000000E-03 0. -1.
        -11    1    3    3    0    0 -0.48991468244E+00 -0.20418566307E+01  0.10635454685E+02  0.10840760652E+02  0.51100000000E-03 0.  1.
        -12    1    3    3    0    0  0.98200735197E+01 -0.57095267754E+01  0.77182111940E+01  0.13733292539E+02  0.00000000000E+00 0.  1.
</event>
<event>
 7    1  0.9424449E-010  0.4778727E+02  0.7816164E-02  0.1312668E+00
        -11   -1    0    0    0    0  0.00000000000E+00  0.00000000000E+00  0.45593999997E+02  0.45594000000E+02  0.51100000000E-03 0. -1.
         11   -1    0    0    0    0 -0.00000000000E+00 -0.00000000000E+00 -0.45593999997E+02  0.45594000000E+02  0.51100000000E-03 0.  1.
    9900012    2    1    2    0    0 -0.84037504647E+01  0.23182533875E+02  0.35715128860E+02  0.47787270418E+02  0.19999997143E+02 0.  0.
        -12    1    1    2    0    0  0.84037504647E+01 -0.23182533875E+02 -0.35715128860E+02  0.43400729582E+02  0.00000000000E+00 0.  1.
         11    1    3    3    0    0 -0.13788403088E+01  0.15402103748E+02  0.27444799312E+02  0.31501476315E+02  0.51100000000E-03 0. -1.
        -11    1    3    3    0    0 -0.42238764460E+01 -0.12044572608E+01  0.40387972295E+01  0.59668863610E+01  0.51100000000E-03 0.  1.
        -12    1    3    3    0    0 -0.28010337099E+01  0.89848873883E+01  0.42315323189E+01  0.10318907742E+02  0.00000000000E+00 0.  1.
</event>
<event>
 7    1  0.9175399E-010  0.4778727E+02  0.7816164E-02  0.1312668E+00
        -11   -1    0    0    0    0  0.00000000000E+00  0.00000000000E+00  0.45593999997E+02  0.45594000000E+02  0.51100000000E-03 0. -1.
         11   -1    0    0    0    0 -0.00000000000E+00 -0.00000000000E+00 -0.45593999997E+02  0.45594000000E+02  0.51100000000E-03 0.  1.
    9900012    2    1    2    0    0 -0.80036563621E+01 -0.42714868443E+01  0.42441946675E+02  0.47787274746E+02  0.20000016876E+02 0.  0.
        -12    1    1    2    0    0  0.80036563621E+01  0.42714868443E+01 -0.42441946675E+02  0.43400725254E+02  0.00000000000E+00 0.  1.
         11    1    3    3    0    0  0.44397757945E+01  0.19267962265E+01  0.13869443166E+02  0.14689642842E+02  0.51100000000E-03 0.  1.
        -11    1    3    3    0    0 -0.47229326849E+01 -0.73143123789E+01  0.17587645318E+02  0.19624742720E+02  0.51100000000E-03 0. -1.
         12    1    3    3    0    0 -0.77204994717E+01  0.11160293081E+01  0.10984858191E+02  0.13472889184E+02  0.00000000000E+00 0. -1.
</event>
<event>
 7    1  0.9175399E-010  0.4778727E+02  0.7816164E-02  0.1312668E+00
        -11   -1    0    0    0    0  0.00000000000E+00  0.00000000000E+00  0.45593999997E+02  0.45594000000E+02  0.51100000000E-03 0. -1.
         11   -1    0    0    0    0 -0.00000000000E+00 -0.00000000000E+00 -0.45593999997E+02  0.45594000000E+02  0.51100000000E-03 0.  1.
    9900012    2    1    2    0    0  0.12310671691E+02 -0.41004348985E+02 -0.71213819865E+01  0.47787270114E+02  0.19999995760E+02 0.  0.
         12    1    1    2    0    0 -0.12310671691E+02  0.41004348985E+02  0.71213819865E+01  0.43400729886E+02  0.00000000000E+00 0. -1.
         11    1    3    3    0    0  0.33010674346E+01 -0.73063066458E+01  0.63421318508E+01  0.10222612175E+02  0.51100000000E-03 0. -1.
        -11    1    3    3    0    0  0.69463524654E+01 -0.27341172693E+02 -0.12326568639E+02  0.30785318440E+02  0.51100000000E-03 0.  1.
         12    1    3    3    0    0  0.20632517910E+01 -0.63568696471E+01 -0.11369451986E+01  0.67793394994E+01  0.00000000000E+00 0. -1.
</event>
<event>
 7    1  0.9175399E-010  0.4778728E+02  0.7816164E-02  0.1312668E+00
        -11   -1    0    0    0    0  0.00000000000E+00  0.00000000000E+00  0.45593999997E+02  0.45594000000E+02  0.51100000000E-03 0. -1.
         11   -1    0    0    0    0 -0.00000000000E+00 -0.00000000000E+00 -0.45593999997E+02  0.45594000000E+02  0.51100000000E-03 0.  1.
    9900012    2    1    2    0    0  0.32558391375E+00 -0.18854195179E+02  0.39090101475E+02  0.47787277494E+02  0.20000029407E+02 0.  0.
        -12    1    1    2    0    0 -0.32558391375E+00  0.18854195179E+02 -0.39090101475E+02  0.43400722506E+02  0.00000000000E+00 0.  1.
         11    1    3    3    0    0 -0.82574619235E+01 -0.38930178475E+01  0.10858123955E+02  0.14185912782E+02  0.51100000000E-03 0. -1.
        -11    1    3    3    0    0  0.55441115370E+01 -0.13879702200E+02  0.22224462182E+02  0.26782644108E+02  0.51100000000E-03 0.  1.
        -12    1    3    3    0    0  0.30389343003E+01 -0.10814751313E+01  0.60075153373E+01  0.68187206035E+01  0.00000000000E+00 0.  1.
</event>
<event>
 7    1  0.9175399E-010  0.4778728E+02  0.7816164E-02  0.1312668E+00
        -11   -1    0    0    0    0  0.00000000000E+00  0.00000000000E+00  0.45593999997E+02  0.45594000000E+02  0.51100000000E-03 0. -1.
         11   -1    0    0    0    0 -0.00000000000E+00 -0.00000000000E+00 -0.45593999997E+02  0.45594000000E+02  0.51100000000E-03 0.  1.
    9900012    2    1    2    0    0  0.28897373957E+02 -0.31344993634E+02 -0.81274812933E+01  0.47787276507E+02  0.20000024907E+02 0.  0.
         12    1    1    2    0    0 -0.28897373957E+02  0.31344993634E+02  0.81274812933E+01  0.43400723493E+02  0.00000000000E+00 0. -1.
         11    1    3    3    0    0  0.38916420515E+01 -0.24101896283E+01 -0.51207328513E+01  0.68684639547E+01  0.51100000000E-03 0. -1.
        -11    1    3    3    0    0  0.10374909344E+02 -0.21253286224E+02  0.17728449117E+01  0.23716743000E+02  0.51100000000E-03 0.  1.
        -12    1    3    3    0    0  0.14630822561E+02 -0.76815177819E+01 -0.47795933537E+01  0.17202069552E+02  0.00000000000E+00 0.  1.
</event>
<event>
 7    1  0.9175399E-010  0.4778727E+02  0.7816164E-02  0.1312668E+00
        -11   -1    0    0    0    0  0.00000000000E+00  0.00000000000E+00  0.45593999997E+02  0.45594000000E+02  0.51100000000E-03 0. -1.
         11   -1    0    0    0    0 -0.00000000000E+00 -0.00000000000E+00 -0.45593999997E+02  0.45594000000E+02  0.51100000000E-03 0.  1.
    9900012    2    1    2    0    0  0.64525730627E+01 -0.11374200606E+02  0.41383755707E+02  0.47787269880E+02  0.19999994691E+02 0.  0.
        -12    1    1    2    0    0 -0.64525730627E+01  0.11374200606E+02 -0.41383755707E+02  0.43400730120E+02  0.00000000000E+00 0.  1.
         11    1    3    3    0    0  0.84837266455E+01 -0.14597828235E+02  0.21414620414E+02  0.27270060042E+02  0.51100000000E-03 0. -1.
        -11    1    3    3    0    0 -0.23471546484E+01  0.17038149931E+01  0.94776746836E+01  0.99115305651E+01  0.51100000000E-03 0.  1.
         12    1    3    3    0    0  0.31600106568E+00  0.15198126360E+01  0.10491460609E+02  0.10605679273E+02  0.00000000000E+00 0. -1.
</event>
<event>
 7    1  0.9175399E-010  0.4778727E+02  0.7816164E-02  0.1312668E+00
        -11   -1    0    0    0    0  0.00000000000E+00  0.00000000000E+00  0.45593999997E+02  0.45594000000E+02  0.51100000000E-03 0. -1.
         11   -1    0    0    0    0 -0.00000000000E+00 -0.00000000000E+00 -0.45593999997E+02  0.45594000000E+02  0.51100000000E-03 0.  1.
    9900012    2    1    2    0    0  0.39110263470E+02 -0.18263610237E+02 -0.45222736140E+01  0.47787272746E+02  0.20000007757E+02 0.  0.
         12    1    1    2    0    0 -0.39110263470E+02  0.18263610237E+02  0.45222736140E+01  0.43400727254E+02  0.00000000000E+00 0. -1.
         11    1    3    3    0    0  0.27970377363E+02 -0.15613420088E+02 -0.85150492411E+01  0.33145542091E+02  0.51100000000E-03 0. -1.
        -11    1    3    3    0    0  0.60337027540E+01  0.69096491724E+00 -0.16893132999E+01  0.63037116944E+01  0.51100000000E-03 0.  1.
         12    1    3    3    0    0  0.51061833530E+01 -0.33411550657E+01  0.56820889269E+01  0.83380189602E+01  0.00000000000E+00 0. -1.
</event>
<event>
 7    1  0.9175399E-010  0.4778726E+02  0.7816164E-02  0.1312668E+00
        -11   -1    0    0    0    0  0.00000000000E+00  0.00000000000E+00  0.45593999997E+02  0.45594000000E+02  0.51100000000E-03 0. -1.
         11   -1    0    0    0    0 -0.00000000000E+00 -0.00000000000E+00 -0.45593999997E+02  0.45594000000E+02  0.51100000000E-03 0.  1.
    9900012    2    1    2    0    0 -0.17389540502E+02  0.37365012478E+01  0.39588720165E+02  0.47787258937E+02  0.19999944799E+02 0.  0.
        -12    1    1    2    0    0  0.17389540502E+02 -0.37365012478E+01 -0.39588720165E+02  0.43400741063E+02  0.00000000000E+00 0.  1.
         11    1    3    3    0    0 -0.10256173456E+02 -0.32088067321E+01  0.26674177441E+02  0.28757560345E+02  0.51100000000E-03 0. -1.
        -11    1    3    3    0    0 -0.18388904222E+01  0.69754286902E+01  0.30457981555E+01  0.78303901603E+01  0.51100000000E-03 0.  1.
        -12    1    3    3    0    0 -0.52944766241E+01 -0.30120710336E-01  0.98687445692E+01  0.11199308432E+02  0.00000000000E+00 0.  1.
</event>
<event>
 7    1  0.9175399E-010  0.4778727E+02  0.7816164E-02  0.1312668E+00
        -11   -1    0    0    0    0  0.00000000000E+00  0.00000000000E+00  0.45593999997E+02  0.45594000000E+02  0.51100000000E-03 0. -1.
         11   -1    0    0    0    0 -0.00000000000E+00 -0.00000000000E+00 -0.45593999997E+02  0.45594000000E+02  0.51100000000E-03 0.  1.
    9900012    2    1    2    0    0  0.20448295592E+02 -0.92220648295E+01 -0.37154325318E+02  0.47787272332E+02  0.20000005870E+02 0.  0.
         12    1    1    2    0    0 -0.20448295592E+02  0.92220648295E+01  0.37154325318E+02  0.43400727668E+02  0.00000000000E+00 0. -1.
         11    1    3    3    0    0 -0.18379479854E+01  0.29878956656E+01 -0.47565326564E+01  0.59101756724E+01  0.51100000000E-03 0. -1.
        -11    1    3    3    0    0  0.16929891285E+02 -0.52059335458E+01 -0.21254804624E+02  0.27667484217E+02  0.51100000000E-03 0.  1.
        -12    1    3    3    0    0  0.53563522915E+01 -0.70040269493E+01 -0.11142988037E+02  0.14209612443E+02  0.00000000000E+00 0.  1.
</event>
<event>
 7    1  0.9175399E-010  0.4778728E+02  0.7816164E-02  0.1312668E+00
        -11   -1    0    0    0    0  0.00000000000E+00  0.00000000000E+00  0.45593999997E+02  0.45594000000E+02  0.51100000000E-03 0. -1.
         11   -1    0    0    0    0 -0.00000000000E+00 -0.00000000000E+00 -0.45593999997E+02  0.45594000000E+02  0.51100000000E-03 0.  1.
    9900012    2    1    2    0    0 -0.26665631861E+02  0.27715965767E+02 -0.20109505392E+02  0.47787275489E+02  0.20000020263E+02 0.  0.
         12    1    1    2    0    0  0.26665631861E+02 -0.27715965767E+02  0.20109505392E+02  0.43400724511E+02  0.00000000000E+00 0. -1.
         11    1    3    3    0    0 -0.91694746713E+01  0.11523951174E+01 -0.85654113438E+01  0.12600537766E+02  0.51100000000E-03 0. -1.
        -11    1    3    3    0    0 -0.80270769042E+01  0.20443279231E+02 -0.74648874176E+01  0.23196684543E+02  0.51100000000E-03 0.  1.
        -12    1    3    3    0    0 -0.94690802858E+01  0.61202914190E+01 -0.40792066309E+01  0.11990053180E+02  0.00000000000E+00 0.  1.
</event>
<event>
 7    1  0.9175399E-010  0.4778731E+02  0.7816164E-02  0.1312668E+00
        -11   -1    0    0    0    0  0.00000000000E+00  0.00000000000E+00  0.45593999997E+02  0.45594000000E+02  0.51100000000E-03 0.  1.
         11   -1    0    0    0    0 -0.00000000000E+00 -0.00000000000E+00 -0.45593999997E+02  0.45594000000E+02  0.51100000000E-03 0. -1.
    9900012    2    1    2    0    0 -0.17460489372E+02  0.35306279425E+02  0.18226836375E+02  0.47787313137E+02  0.20000191914E+02 0.  0.
         12    1    1    2    0    0  0.17460489372E+02 -0.35306279425E+02 -0.18226836375E+02  0.43400686863E+02  0.00000000000E+00 0. -1.
         11    1    3    3    0    0 -0.70448921713E+01  0.20801926367E+02  0.40314984249E+01  0.22329434075E+02  0.51100000000E-03 0. -1.
        -11    1    3    3    0    0 -0.20555026437E+01  0.89418108225E+01  0.12124919929E+02  0.15205089787E+02  0.51100000000E-03 0.  1.
         12    1    3    3    0    0 -0.83600945570E+01  0.55625422360E+01  0.20704180215E+01  0.10252789275E+02  0.00000000000E+00 0. -1.
</event>
<event>
 7    1  0.9175399E-010  0.4778727E+02  0.7816164E-02  0.1312668E+00
        -11   -1    0    0    0    0  0.00000000000E+00  0.00000000000E+00  0.45593999997E+02  0.45594000000E+02  0.51100000000E-03 0.  1.
         11   -1    0    0    0    0 -0.00000000000E+00 -0.00000000000E+00 -0.45593999997E+02  0.45594000000E+02  0.51100000000E-03 0. -1.
    9900012    2    1    2    0    0 -0.11826807066E+02 -0.39573696334E+02  0.13329390369E+02  0.47787268964E+02  0.19999990513E+02 0.  0.
        -12    1    1    2    0    0  0.11826807066E+02  0.39573696334E+02 -0.13329390369E+02  0.43400731036E+02  0.00000000000E+00 0.  1.
         11    1    3    3    0    0  0.18457770925E+01 -0.91504799114E+01  0.77274696928E+01  0.12118249205E+02  0.51100000000E-03 0. -1.
        -11    1    3    3    0    0  0.13522134736E+00 -0.55641389740E+01  0.45905338726E+01  0.72146329658E+01  0.51100000000E-03 0.  1.
         12    1    3    3    0    0 -0.13807805506E+02 -0.24859077448E+02  0.10113868032E+01  0.28454386793E+02  0.00000000000E+00 0. -1.
</event>
<event>
 7    1  0.9175399E-010  0.4778727E+02  0.7816164E-02  0.1312668E+00
        -11   -1    0    0    0    0  0.00000000000E+00  0.00000000000E+00  0.45593999997E+02  0.45594000000E+02  0.51100000000E-03 0. -1.
         11   -1    0    0    0    0 -0.00000000000E+00 -0.00000000000E+00 -0.45593999997E+02  0.45594000000E+02  0.51100000000E-03 0.  1.
    9900012    2    1    2    0    0  0.63645603209E+01 -0.36327158612E+02 -0.22879102733E+02  0.47787269329E+02  0.19999992181E+02 0.  0.
         12    1    1    2    0    0 -0.63645603209E+01  0.36327158612E+02  0.22879102733E+02  0.43400730671E+02  0.00000000000E+00 0. -1.
         11    1    3    3    0    0 -0.24260829877E+00 -0.53215691296E+00  0.73071623266E+00  0.93594670812E+00  0.51100000000E-03 0. -1.
        -11    1    3    3    0    0  0.91671532770E+01 -0.33042475956E+02 -0.14944118794E+02  0.37405462212E+02  0.51100000000E-03 0.  1.
        -12    1    3    3    0    0 -0.25599846574E+01 -0.27525257431E+01 -0.86657001716E+01  0.94458604096E+01  0.00000000000E+00 0.  1.
</event>
<event>
 7    1  0.9175399E-010  0.4778727E+02  0.7816164E-02  0.1312668E+00
        -11   -1    0    0    0    0  0.00000000000E+00  0.00000000000E+00  0.45593999997E+02  0.45594000000E+02  0.51100000000E-03 0. -1.
         11   -1    0    0    0    0 -0.00000000000E+00 -0.00000000000E+00 -0.45593999997E+02  0.45594000000E+02  0.51100000000E-03 0.  1.
    9900012    2    1    2    0    0 -0.16819376543E+02  0.27419170407E+02 -0.29136247050E+02  0.47787271605E+02  0.20000002554E+02 0.  0.
         12    1    1    2    0    0  0.16819376543E+02 -0.27419170407E+02  0.29136247050E+02  0.43400728395E+02  0.00000000000E+00 0. -1.
         11    1    3    3    0    0 -0.90814407468E+01 -0.19925920940E+00 -0.58170267456E+01  0.10786568995E+02  0.51100000000E-03 0. -1.
        -11    1    3    3    0    0 -0.73502879238E+01  0.24576484326E+02 -0.20540721151E+02  0.32862616147E+02  0.51100000000E-03 0.  1.
         12    1    3    3    0    0 -0.38764787219E+00  0.30419452907E+01 -0.27784991528E+01  0.41380864619E+01  0.00000000000E+00 0. -1.
</event>
<event>
 7    1  0.9175399E-010  0.4778727E+02  0.7816164E-02  0.1312668E+00
        -11   -1    0    0    0    0  0.00000000000E+00  0.00000000000E+00  0.45593999997E+02  0.45594000000E+02  0.51100000000E-03 0. -1.
         11   -1    0    0    0    0 -0.00000000000E+00 -0.00000000000E+00 -0.45593999997E+02  0.45594000000E+02  0.51100000000E-03 0.  1.
    9900012    2    1    2    0    0  0.10273744104E+02  0.30183587856E+02  0.29445277726E+02  0.47787272193E+02  0.20000005239E+02 0.  0.
        -12    1    1    2    0    0 -0.10273744104E+02 -0.30183587856E+02 -0.29445277726E+02  0.43400727807E+02  0.00000000000E+00 0.  1.
         11    1    3    3    0    0  0.46273726521E+01  0.50227086035E+01 -0.14686058092E+01  0.69854837099E+01  0.51100000000E-03 0. -1.
        -11    1    3    3    0    0  0.27664817613E+01  0.32228512468E+01  0.30888628296E+01  0.52517868708E+01  0.51100000000E-03 0.  1.
         12    1    3    3    0    0  0.28798896908E+01  0.21938028006E+02  0.27825020706E+02  0.35550001613E+02  0.00000000000E+00 0. -1.
</event>
<event>
 7    1  0.9175399E-010  0.4778727E+02  0.7816164E-02  0.1312668E+00
        -11   -1    0    0    0    0  0.00000000000E+00  0.00000000000E+00  0.45593999997E+02  0.45594000000E+02  0.51100000000E-03 0. -1.
         11   -1    0    0    0    0 -0.00000000000E+00 -0.00000000000E+00 -0.45593999997E+02  0.45594000000E+02  0.51100000000E-03 0.  1.
    9900012    2    1    2    0    0 -0.37394270681E+02 -0.11733048120E+02  0.18644762449E+02  0.47787273453E+02  0.20000010984E+02 0.  0.
        -12    1    1    2    0    0  0.37394270681E+02  0.11733048120E+02 -0.18644762449E+02  0.43400726547E+02  0.00000000000E+00 0.  1.
         11    1    3    3    0    0 -0.78123478136E+01 -0.35795600143E+01  0.13121470212E+02  0.15684993116E+02  0.51100000000E-03 0. -1.
        -11    1    3    3    0    0 -0.29518894173E+02 -0.83752423486E+01  0.62723407167E+01  0.31318557692E+02  0.51100000000E-03 0.  1.
         12    1    3    3    0    0 -0.63028694940E-01  0.22175424241E+00 -0.74904847959E+00  0.78372264558E+00  0.00000000000E+00 0. -1.
</event>
<event>
 7    1  0.9175399E-010  0.4778727E+02  0.7816164E-02  0.1312668E+00
        -11   -1    0    0    0    0  0.00000000000E+00  0.00000000000E+00  0.45593999997E+02  0.45594000000E+02  0.51100000000E-03 0. -1.
         11   -1    0    0    0    0 -0.00000000000E+00 -0.00000000000E+00 -0.45593999997E+02  0.45594000000E+02  0.51100000000E-03 0.  1.
    9900012    2    1    2    0    0  0.36251337797E+01 -0.16109370101E+02  0.40136890996E+02  0.47787269375E+02  0.19999992388E+02 0.  0.
        -12    1    1    2    0    0 -0.36251337797E+01  0.16109370101E+02 -0.40136890996E+02  0.43400730625E+02  0.00000000000E+00 0.  1.
         11    1    3    3    0    0 -0.53268517308E+01 -0.18056051935E+01  0.35222723313E+01  0.66364118403E+01  0.51100000000E-03 0.  1.
        -11    1    3    3    0    0  0.79115762742E+01 -0.70568819251E+01  0.27416105691E+02  0.29394480318E+02  0.51100000000E-03 0. -1.
         12    1    3    3    0    0  0.10404092364E+01 -0.72468829821E+01  0.91985129741E+01  0.11756377217E+02  0.00000000000E+00 0. -1.
</event>
<event>
 7    1  0.9175399E-010  0.4778727E+02  0.7816164E-02  0.1312668E+00
        -11   -1    0    0    0    0  0.00000000000E+00  0.00000000000E+00  0.45593999997E+02  0.45594000000E+02  0.51100000000E-03 0. -1.
         11   -1    0    0    0    0 -0.00000000000E+00 -0.00000000000E+00 -0.45593999997E+02  0.45594000000E+02  0.51100000000E-03 0.  1.
    9900012    2    1    2    0    0 -0.99809565029E+01 -0.21579283621E+02 -0.36308932888E+02  0.47787267497E+02  0.19999983826E+02 0.  0.
         12    1    1    2    0    0  0.99809565029E+01  0.21579283621E+02  0.36308932888E+02  0.43400732503E+02  0.00000000000E+00 0. -1.
         11    1    3    3    0    0  0.11926425332E+01 -0.11475613556E+01 -0.53854999168E+01  0.56340840331E+01  0.51100000000E-03 0. -1.
        -11    1    3    3    0    0 -0.89556460600E+01 -0.43297374213E+01 -0.20659909392E+02  0.22929938483E+02  0.51100000000E-03 0.  1.
        -12    1    3    3    0    0 -0.22179529762E+01 -0.16101984844E+02 -0.10263523579E+02  0.19223244981E+02  0.00000000000E+00 0.  1.
</event>
<event>
 7    1  0.9175399E-010  0.4778727E+02  0.7816164E-02  0.1312668E+00
        -11   -1    0    0    0    0  0.00000000000E+00  0.00000000000E+00  0.45593999997E+02  0.45594000000E+02  0.51100000000E-03 0. -1.
         11   -1    0    0    0    0 -0.00000000000E+00 -0.00000000000E+00 -0.45593999997E+02  0.45594000000E+02  0.51100000000E-03 0.  1.
    9900012    2    1    2    0    0 -0.16774308588E+02 -0.72734170904E+01  0.39361697640E+02  0.47787271137E+02  0.20000000422E+02 0.  0.
        -12    1    1    2    0    0  0.16774308588E+02  0.72734170904E+01 -0.39361697640E+02  0.43400728863E+02  0.00000000000E+00 0.  1.
         11    1    3    3    0    0 -0.16764378455E+02 -0.99139087533E+01  0.32505701640E+02  0.37893938976E+02  0.51100000000E-03 0. -1.
        -11    1    3    3    0    0 -0.85756602157E+00  0.44292048085E+01  0.26184344115E+01  0.52162700990E+01  0.51100000000E-03 0.  1.
        -12    1    3    3    0    0  0.84763588901E+00 -0.17887131456E+01  0.42375615886E+01  0.46770620623E+01  0.00000000000E+00 0.  1.
</event>
<event>
 7    1  0.9175399E-010  0.4778727E+02  0.7816164E-02  0.1312668E+00
        -11   -1    0    0    0    0  0.00000000000E+00  0.00000000000E+00  0.45593999997E+02  0.45594000000E+02  0.51100000000E-03 0. -1.
         11   -1    0    0    0    0 -0.00000000000E+00 -0.00000000000E+00 -0.45593999997E+02  0.45594000000E+02  0.51100000000E-03 0.  1.
    9900012    2    1    2    0    0  0.38654332664E+02  0.12483000585E+02 -0.15285307226E+02  0.47787270118E+02  0.19999995775E+02 0.  0.
         12    1    1    2    0    0 -0.38654332664E+02 -0.12483000585E+02  0.15285307226E+02  0.43400729882E+02  0.00000000000E+00 0. -1.
         11    1    3    3    0    0  0.27385854650E+02  0.55695457510E+01 -0.15015970470E+02  0.31725135842E+02  0.51100000000E-03 0. -1.
        -11    1    3    3    0    0  0.91859799815E+01  0.54742710368E+01  0.37331205615E+01  0.11326343673E+02  0.51100000000E-03 0.  1.
        -12    1    3    3    0    0  0.20824980326E+01  0.14391837970E+01 -0.40024573170E+01  0.47357906026E+01  0.00000000000E+00 0.  1.
</event>
<event>
 7    1  0.9446020E-010  0.4778727E+02  0.7816164E-02  0.1312668E+00
        -11   -1    0    0    0    0  0.00000000000E+00  0.00000000000E+00  0.45593999997E+02  0.45594000000E+02  0.51100000000E-03 0. -1.
         11   -1    0    0    0    0 -0.00000000000E+00 -0.00000000000E+00 -0.45593999997E+02  0.45594000000E+02  0.51100000000E-03 0.  1.
    9900012    2    1    2    0    0 -0.27262912306E+02  0.25178908230E+02 -0.22502877588E+02  0.47787270666E+02  0.19999998272E+02 0.  0.
         12    1    1    2    0    0  0.27262912306E+02 -0.25178908230E+02  0.22502877588E+02  0.43400729334E+02  0.00000000000E+00 0. -1.
         11    1    3    3    0    0 -0.14230935118E+02  0.15522685190E+02 -0.53571927895E+01  0.21729537149E+02  0.51100000000E-03 0. -1.
        -11    1    3    3    0    0 -0.98541220623E+01  0.11731365563E+02 -0.11099348339E+02  0.18918884571E+02  0.51100000000E-03 0.  1.
         12    1    3    3    0    0 -0.31778551253E+01 -0.20751425238E+01 -0.60463364596E+01  0.71388489460E+01  0.00000000000E+00 0. -1.
</event>
<event>
 7    1  0.9175399E-010  0.4778727E+02  0.7816164E-02  0.1312668E+00
        -11   -1    0    0    0    0  0.00000000000E+00  0.00000000000E+00  0.45593999997E+02  0.45594000000E+02  0.51100000000E-03 0. -1.
         11   -1    0    0    0    0 -0.00000000000E+00 -0.00000000000E+00 -0.45593999997E+02  0.45594000000E+02  0.51100000000E-03 0.  1.
    9900012    2    1    2    0    0 -0.34431103539E+02  0.11379454671E+02 -0.23845970770E+02  0.47787271879E+02  0.20000003804E+02 0.  0.
         12    1    1    2    0    0  0.34431103539E+02 -0.11379454671E+02  0.23845970770E+02  0.43400728121E+02  0.00000000000E+00 0. -1.
         11    1    3    3    0    0 -0.74366955278E+01 -0.10371744579E+00 -0.14858875233E+02  0.16616298359E+02  0.51100000000E-03 0. -1.
        -11    1    3    3    0    0 -0.23723194283E+02  0.99991571244E+01 -0.58472980068E+01  0.26400075462E+02  0.51100000000E-03 0.  1.
        -12    1    3    3    0    0 -0.32712137285E+01  0.14840149920E+01 -0.31397975297E+01  0.47708980582E+01  0.00000000000E+00 0.  1.
</event>
<event>
 7    1  0.9175399E-010  0.4778727E+02  0.7816164E-02  0.1312668E+00
        -11   -1    0    0    0    0  0.00000000000E+00  0.00000000000E+00  0.45593999997E+02  0.45594000000E+02  0.51100000000E-03 0. -1.
         11   -1    0    0    0    0 -0.00000000000E+00 -0.00000000000E+00 -0.45593999997E+02  0.45594000000E+02  0.51100000000E-03 0.  1.
    9900012    2    1    2    0    0 -0.36408937570E+02  0.23031391493E+02 -0.52504915441E+01  0.47787269700E+02  0.19999993872E+02 0.  0.
         12    1    1    2    0    0  0.36408937570E+02 -0.23031391493E+02  0.52504915441E+01  0.43400730300E+02  0.00000000000E+00 0. -1.
         11    1    3    3    0    0 -0.92579778592E+00 -0.11434149322E+00  0.85851016839E+00  0.12677600277E+01  0.51100000000E-03 0. -1.
        -11    1    3    3    0    0 -0.33958026738E+02  0.15778144473E+02 -0.89120352934E+01  0.38490541647E+02  0.51100000000E-03 0.  1.
        -12    1    3    3    0    0 -0.15251130462E+01  0.73675885133E+01  0.28030335809E+01  0.80289680259E+01  0.00000000000E+00 0.  1.
</event>
<event>
 7    1  0.9175399E-010  0.4778728E+02  0.7816164E-02  0.1312668E+00
        -11   -1    0    0    0    0  0.00000000000E+00  0.00000000000E+00  0.45593999997E+02  0.45594000000E+02  0.51100000000E-03 0. -1.
         11   -1    0    0    0    0 -0.00000000000E+00 -0.00000000000E+00 -0.45593999997E+02  0.45594000000E+02  0.51100000000E-03 0.  1.
    9900012    2    1    2    0    0 -0.24107967948E+02 -0.49887793732E+01 -0.35742702811E+02  0.47787276015E+02  0.20000022661E+02 0.  0.
         12    1    1    2    0    0  0.24107967948E+02  0.49887793732E+01  0.35742702811E+02  0.43400723985E+02  0.00000000000E+00 0. -1.
         11    1    3    3    0    0 -0.12841613113E+02 -0.83123303807E+01 -0.30615420400E+02  0.34224345577E+02  0.51100000000E-03 0. -1.
        -11    1    3    3    0    0 -0.83328787067E+01  0.25127127119E+01 -0.15064333951E+01  0.88328893658E+01  0.51100000000E-03 0.  1.
         12    1    3    3    0    0 -0.29334761280E+01  0.81083829558E+00 -0.36208490167E+01  0.47300410714E+01  0.00000000000E+00 0. -1.
</event>
<event>
 7    1  0.9175399E-010  0.4778727E+02  0.7816164E-02  0.1312668E+00
        -11   -1    0    0    0    0  0.00000000000E+00  0.00000000000E+00  0.45593999997E+02  0.45594000000E+02  0.51100000000E-03 0. -1.
         11   -1    0    0    0    0 -0.00000000000E+00 -0.00000000000E+00 -0.45593999997E+02  0.45594000000E+02  0.51100000000E-03 0.  1.
    9900012    2    1    2    0    0 -0.96972023784E+01 -0.39403242961E+02  0.15393890829E+02  0.47787272303E+02  0.20000005736E+02 0.  0.
        -12    1    1    2    0    0  0.96972023784E+01  0.39403242961E+02 -0.15393890829E+02  0.43400727697E+02  0.00000000000E+00 0.  1.
         11    1    3    3    0    0 -0.26928166562E+01 -0.10187921053E+02  0.12448769951E+02  0.16310023620E+02  0.51100000000E-03 0. -1.
        -11    1    3    3    0    0 -0.31967111942E+01 -0.26080060122E+02  0.35260771582E+01  0.26510784953E+02  0.51100000000E-03 0.  1.
         12    1    3    3    0    0 -0.38076745280E+01 -0.31352617865E+01 -0.58095628060E+00  0.49664637300E+01  0.00000000000E+00 0. -1.
</event>
<event>
 7    1  0.9175399E-010  0.4778728E+02  0.7816164E-02  0.1312668E+00
        -11   -1    0    0    0    0  0.00000000000E+00  0.00000000000E+00  0.45593999997E+02  0.45594000000E+02  0.51100000000E-03 0. -1.
         11   -1    0    0    0    0 -0.00000000000E+00 -0.00000000000E+00 -0.45593999997E+02  0.45594000000E+02  0.51100000000E-03 0.  1.
    9900012    2    1    2    0    0  0.17022389652E+02  0.36197640227E+01 -0.39758752386E+02  0.47787276131E+02  0.20000023191E+02 0.  0.
         12    1    1    2    0    0 -0.17022389652E+02 -0.36197640227E+01  0.39758752386E+02  0.43400723869E+02  0.00000000000E+00 0. -1.
         11    1    3    3    0    0  0.19996193516E+02  0.18705428633E+01 -0.23667690057E+02  0.31040396883E+02  0.51100000000E-03 0. -1.
        -11    1    3    3    0    0 -0.29055675634E+01  0.99380058978E+00 -0.15454584394E+02  0.15756717346E+02  0.51100000000E-03 0.  1.
         12    1    3    3    0    0 -0.68236300846E-01  0.75542056961E+00 -0.63647793522E+00  0.99016190179E+00  0.00000000000E+00 0. -1.
</event>
<event>
 7    1  0.9175399E-010  0.4778727E+02  0.7816164E-02  0.1312668E+00
        -11   -1    0    0    0    0  0.00000000000E+00  0.00000000000E+00  0.45593999997E+02  0.45594000000E+02  0.51100000000E-03 0. -1.
         11   -1    0    0    0    0 -0.00000000000E+00 -0.00000000000E+00 -0.45593999997E+02  0.45594000000E+02  0.51100000000E-03 0.  1.
    9900012    2    1    2    0    0  0.12655126504E+02  0.80222475916E+01  0.40732230401E+02  0.47787271013E+02  0.19999999854E+02 0.  0.
        -12    1    1    2    0    0 -0.12655126504E+02 -0.80222475916E+01 -0.40732230401E+02  0.43400728987E+02  0.00000000000E+00 0.  1.
         11    1    3    3    0    0  0.20296106571E+00 -0.43063907555E+01  0.90520663367E+01  0.10026270481E+02  0.51100000000E-03 0. -1.
        -11    1    3    3    0    0  0.14125364328E+02  0.10979554777E+02  0.30358046895E+02  0.35237587205E+02  0.51100000000E-03 0.  1.
        -12    1    3    3    0    0 -0.16731988904E+01  0.13490835705E+01  0.13221171685E+01  0.25234133261E+01  0.00000000000E+00 0.  1.
</event>
<event>
 7    1  0.9175399E-010  0.4778725E+02  0.7816164E-02  0.1312668E+00
        -11   -1    0    0    0    0  0.00000000000E+00  0.00000000000E+00  0.45593999997E+02  0.45594000000E+02  0.51100000000E-03 0. -1.
         11   -1    0    0    0    0 -0.00000000000E+00 -0.00000000000E+00 -0.45593999997E+02  0.45594000000E+02  0.51100000000E-03 0.  1.
    9900012    2    1    2    0    0 -0.13464155007E+02 -0.10588195758E+02 -0.39877710211E+02  0.47787249648E+02  0.19999902444E+02 0.  0.
         12    1    1    2    0    0  0.13464155007E+02  0.10588195758E+02  0.39877710211E+02  0.43400750352E+02  0.00000000000E+00 0. -1.
         11    1    3    3    0    0  0.34260734366E+01 -0.12593898626E-01 -0.41648726254E+01  0.53929863755E+01  0.51100000000E-03 0. -1.
        -11    1    3    3    0    0 -0.17705836678E+02 -0.72207082472E+01 -0.32324686879E+02  0.37556898995E+02  0.51100000000E-03 0.  1.
        -12    1    3    3    0    0  0.81560823433E+00 -0.33548936119E+01 -0.33881507067E+01  0.48373642772E+01  0.00000000000E+00 0.  1.
</event>
<event>
 7    1  0.9175399E-010  0.4778727E+02  0.7816164E-02  0.1312668E+00
        -11   -1    0    0    0    0  0.00000000000E+00  0.00000000000E+00  0.45593999997E+02  0.45594000000E+02  0.51100000000E-03 0. -1.
         11   -1    0    0    0    0 -0.00000000000E+00 -0.00000000000E+00 -0.45593999997E+02  0.45594000000E+02  0.51100000000E-03 0.  1.
    9900012    2    1    2    0    0 -0.14520206023E+02 -0.40848988430E+02  0.20364409837E+01  0.47787270391E+02  0.19999997019E+02 0.  0.
         12    1    1    2    0    0  0.14520206023E+02  0.40848988430E+02 -0.20364409837E+01  0.43400729609E+02  0.00000000000E+00 0. -1.
         11    1    3    3    0    0  0.27100902541E+00 -0.22703306060E+01  0.60074827220E+00  0.23640528125E+01  0.51100000000E-03 0. -1.
        -11    1    3    3    0    0 -0.26846197241E+01 -0.21402563203E+02  0.86000716107E+01  0.23221501387E+02  0.51100000000E-03 0.  1.
        -12    1    3    3    0    0 -0.12106595325E+02 -0.17176094622E+02 -0.71643788992E+01  0.22201716191E+02  0.00000000000E+00 0.  1.
</event>
<event>
 7    1  0.9175399E-010  0.4778727E+02  0.7816164E-02  0.1312668E+00
        -11   -1    0    0    0    0  0.00000000000E+00  0.00000000000E+00  0.45593999997E+02  0.45594000000E+02  0.51100000000E-03 0. -1.
         11   -1    0    0    0    0 -0.00000000000E+00 -0.00000000000E+00 -0.45593999997E+02  0.45594000000E+02  0.51100000000E-03 0.  1.
    9900012    2    1    2    0    0  0.19764571478E+02 -0.10604181104E+02 -0.37155569052E+02  0.47787271271E+02  0.20000001035E+02 0.  0.
         12    1    1    2    0    0 -0.19764571478E+02  0.10604181104E+02  0.37155569052E+02  0.43400728729E+02  0.00000000000E+00 0. -1.
         11    1    3    3    0    0  0.41433035436E+00  0.31825278371E+01 -0.18803860822E-01  0.32094402818E+01  0.51100000000E-03 0. -1.
        -11    1    3    3    0    0  0.17853846011E+02 -0.14485373611E+02 -0.35030317507E+02  0.41901181498E+02  0.51100000000E-03 0.  1.
         12    1    3    3    0    0  0.14963951125E+01  0.69866467001E+00 -0.21064476843E+01  0.26766494916E+01  0.00000000000E+00 0. -1.
</event>
<event>
 7    1  0.9175399E-010  0.4778727E+02  0.7816164E-02  0.1312668E+00
        -11   -1    0    0    0    0  0.00000000000E+00  0.00000000000E+00  0.45593999997E+02  0.45594000000E+02  0.51100000000E-03 0. -1.
         11   -1    0    0    0    0 -0.00000000000E+00 -0.00000000000E+00 -0.45593999997E+02  0.45594000000E+02  0.51100000000E-03 0.  1.
    9900012    2    1    2    0    0 -0.98277153281E+01  0.46789351827E+01  0.42013653392E+02  0.47787268505E+02  0.19999988419E+02 0.  0.
        -12    1    1    2    0    0  0.98277153281E+01 -0.46789351827E+01 -0.42013653392E+02  0.43400731495E+02  0.00000000000E+00 0.  1.
         11    1    3    3    0    0 -0.84859385267E+01 -0.19468909340E+00  0.59853225274E+01  0.10386199620E+02  0.51100000000E-03 0. -1.
        -11    1    3    3    0    0 -0.24002305628E+01 -0.88979625356E+00  0.34282036683E+01  0.42784839348E+01  0.51100000000E-03 0.  1.
         12    1    3    3    0    0  0.10584537614E+01  0.57634205297E+01  0.32600127196E+02  0.33122584950E+02  0.00000000000E+00 0. -1.
</event>
<event>
 7    1  0.9175399E-010  0.4778727E+02  0.7816164E-02  0.1312668E+00
        -11   -1    0    0    0    0  0.00000000000E+00  0.00000000000E+00  0.45593999997E+02  0.45594000000E+02  0.51100000000E-03 0. -1.
         11   -1    0    0    0    0 -0.00000000000E+00 -0.00000000000E+00 -0.45593999997E+02  0.45594000000E+02  0.51100000000E-03 0.  1.
    9900012    2    1    2    0    0 -0.29157929331E+01 -0.35589885274E+02  0.24667411855E+02  0.47787274316E+02  0.20000014917E+02 0.  0.
        -12    1    1    2    0    0  0.29157929331E+01  0.35589885274E+02 -0.24667411855E+02  0.43400725684E+02  0.00000000000E+00 0.  1.
         11    1    3    3    0    0 -0.30084049015E+01  0.15970485240E+00  0.58783490566E+01  0.66053761122E+01  0.51100000000E-03 0. -1.
        -11    1    3    3    0    0  0.33639607558E+01 -0.23886287113E+02  0.14527487975E+02  0.28158814804E+02  0.51100000000E-03 0.  1.
        -12    1    3    3    0    0 -0.32713487874E+01 -0.11863303013E+02  0.42615748234E+01  0.13023083400E+02  0.00000000000E+00 0.  1.
</event>
<event>
 7    1  0.9175399E-010  0.4778727E+02  0.7816164E-02  0.1312668E+00
        -11   -1    0    0    0    0  0.00000000000E+00  0.00000000000E+00  0.45593999997E+02  0.45594000000E+02  0.51100000000E-03 0. -1.
         11   -1    0    0    0    0 -0.00000000000E+00 -0.00000000000E+00 -0.45593999997E+02  0.45594000000E+02  0.51100000000E-03 0.  1.
    9900012    2    1    2    0    0  0.14090385416E+02  0.58943102559E+01  0.40624395439E+02  0.47787270060E+02  0.19999995512E+02 0.  0.
        -12    1    1    2    0    0 -0.14090385416E+02 -0.58943102559E+01 -0.40624395439E+02  0.43400729940E+02  0.00000000000E+00 0.  1.
         11    1    3    3    0    0  0.11882292438E+00  0.99388490913E+00  0.58073977892E+01  0.58930293944E+01  0.51100000000E-03 0. -1.
        -11    1    3    3    0    0 -0.35271633459E+01  0.51647939547E-01  0.12717569711E+01  0.37497886384E+01  0.51100000000E-03 0.  1.
        -12    1    3    3    0    0  0.17498725838E+02  0.48487774072E+01  0.33545240678E+02  0.38144452027E+02  0.00000000000E+00 0.  1.
</event>
<event>
 7    1  0.9175399E-010  0.4778727E+02  0.7816164E-02  0.1312668E+00
        -11   -1    0    0    0    0  0.00000000000E+00  0.00000000000E+00  0.45593999997E+02  0.45594000000E+02  0.51100000000E-03 0. -1.
         11   -1    0    0    0    0 -0.00000000000E+00 -0.00000000000E+00 -0.45593999997E+02  0.45594000000E+02  0.51100000000E-03 0.  1.
    9900012    2    1    2    0    0 -0.33182517897E+02  0.10740019021E+02  0.25830131212E+02  0.47787272115E+02  0.20000004880E+02 0.  0.
        -12    1    1    2    0    0  0.33182517897E+02 -0.10740019021E+02 -0.25830131212E+02  0.43400727885E+02  0.00000000000E+00 0.  1.
         11    1    3    3    0    0 -0.25377961484E+02  0.10368143844E+02  0.87502147658E+01  0.28776823914E+02  0.51100000000E-03 0.  1.
        -11    1    3    3    0    0 -0.75674085342E+01 -0.12407520332E+00  0.14327305402E+02  0.16203479469E+02  0.51100000000E-03 0. -1.
        -12    1    3    3    0    0 -0.23714787846E+00  0.49595037956E+00  0.27526110449E+01  0.28069687315E+01  0.00000000000E+00 0.  1.
</event>
<event>
 7    1  0.9175399E-010  0.4778726E+02  0.7816164E-02  0.1312668E+00
        -11   -1    0    0    0    0  0.00000000000E+00  0.00000000000E+00  0.45593999997E+02  0.45594000000E+02  0.51100000000E-03 0. -1.
         11   -1    0    0    0    0 -0.00000000000E+00 -0.00000000000E+00 -0.45593999997E+02  0.45594000000E+02  0.51100000000E-03 0.  1.
    9900012    2    1    2    0    0  0.20790503237E+02  0.35741066855E+02  0.13189197067E+02  0.47787264936E+02  0.19999972151E+02 0.  0.
        -12    1    1    2    0    0 -0.20790503237E+02 -0.35741066855E+02 -0.13189197067E+02  0.43400735064E+02  0.00000000000E+00 0.  1.
         11    1    3    3    0    0  0.38676416503E+01  0.19510431213E+02  0.11416526447E+02  0.22933657676E+02  0.51100000000E-03 0. -1.
        -11    1    3    3    0    0  0.13869264935E+02  0.14336296643E+02 -0.14863820198E+01  0.20002380934E+02  0.51100000000E-03 0.  1.
        -12    1    3    3    0    0  0.30535966518E+01  0.18943389999E+01  0.32590526398E+01  0.48512263261E+01  0.00000000000E+00 0.  1.
</event>
<event>
 7    1  0.9175399E-010  0.4778727E+02  0.7816164E-02  0.1312668E+00
        -11   -1    0    0    0    0  0.00000000000E+00  0.00000000000E+00  0.45593999997E+02  0.45594000000E+02  0.51100000000E-03 0. -1.
         11   -1    0    0    0    0 -0.00000000000E+00 -0.00000000000E+00 -0.45593999997E+02  0.45594000000E+02  0.51100000000E-03 0.  1.
    9900012    2    1    2    0    0  0.16714221700E+02 -0.17310618391E+02 -0.36119261666E+02  0.47787265220E+02  0.19999973445E+02 0.  0.
         12    1    1    2    0    0 -0.16714221700E+02  0.17310618391E+02  0.36119261666E+02  0.43400734780E+02  0.00000000000E+00 0. -1.
         11    1    3    3    0    0  0.83752659676E+00  0.19633527258E+01 -0.25003015829E+01  0.32875086301E+01  0.51100000000E-03 0. -1.
        -11    1    3    3    0    0  0.16553294509E+02 -0.21199192924E+02 -0.32451499622E+02  0.42148750488E+02  0.51100000000E-03 0.  1.
        -12    1    3    3    0    0 -0.67659940611E+00  0.19252218071E+01 -0.11674604616E+01  0.23510061021E+01  0.00000000000E+00 0.  1.
</event>
<event>
 7    1  0.9236354E-010  0.4778727E+02  0.7816164E-02  0.1312668E+00
        -11   -1    0    0    0    0  0.00000000000E+00  0.00000000000E+00  0.45593999997E+02  0.45594000000E+02  0.51100000000E-03 0. -1.
         11   -1    0    0    0    0 -0.00000000000E+00 -0.00000000000E+00 -0.45593999997E+02  0.45594000000E+02  0.51100000000E-03 0.  1.
    9900012    2    1    2    0    0  0.11990214905E+02  0.86973618769E+01 -0.40794776901E+02  0.47787272132E+02  0.20000004959E+02 0.  0.
         12    1    1    2    0    0 -0.11990214905E+02 -0.86973618769E+01  0.40794776901E+02  0.43400727868E+02  0.00000000000E+00 0. -1.
         11    1    3    3    0    0 -0.22462783674E+01 -0.15389065329E+01 -0.44097756168E-01  0.27232232178E+01  0.51100000000E-03 0. -1.
        -11    1    3    3    0    0  0.10291420535E+02  0.11163432615E+02 -0.32503987452E+02  0.35875406129E+02  0.51100000000E-03 0.  1.
         12    1    3    3    0    0  0.39450727368E+01 -0.92716420520E+00 -0.82466916925E+01  0.91886427851E+01  0.00000000000E+00 0. -1.
</event>
<event>
 7    1  0.9175399E-010  0.4778726E+02  0.7816164E-02  0.1312668E+00
        -11   -1    0    0    0    0  0.00000000000E+00  0.00000000000E+00  0.45593999997E+02  0.45594000000E+02  0.51100000000E-03 0. -1.
         11   -1    0    0    0    0 -0.00000000000E+00 -0.00000000000E+00 -0.45593999997E+02  0.45594000000E+02  0.51100000000E-03 0.  1.
    9900012    2    1    2    0    0  0.26586727927E+02  0.20476775980E+02 -0.27522200756E+02  0.47787262784E+02  0.19999962338E+02 0.  0.
         12    1    1    2    0    0 -0.26586727927E+02 -0.20476775980E+02  0.27522200756E+02  0.43400737216E+02  0.00000000000E+00 0. -1.
         11    1    3    3    0    0  0.18416164766E+02  0.36500349620E+01 -0.10688033006E+02  0.21603516605E+02  0.51100000000E-03 0. -1.
        -11    1    3    3    0    0  0.62377502794E+01  0.17004111003E+02 -0.15098584389E+02  0.23580003612E+02  0.51100000000E-03 0.  1.
        -12    1    3    3    0    0  0.19328128815E+01 -0.17736998549E+00 -0.17355833622E+01  0.26037425667E+01  0.00000000000E+00 0.  1.
</event>
<event>
 7    1  0.9175399E-010  0.4778726E+02  0.7816164E-02  0.1312668E+00
        -11   -1    0    0    0    0  0.00000000000E+00  0.00000000000E+00  0.45593999997E+02  0.45594000000E+02  0.51100000000E-03 0. -1.
         11   -1    0    0    0    0 -0.00000000000E+00 -0.00000000000E+00 -0.45593999997E+02  0.45594000000E+02  0.51100000000E-03 0.  1.
    9900012    2    1    2    0    0 -0.11674383679E+02 -0.33127762120E+02  0.25492823456E+02  0.47787263772E+02  0.19999966843E+02 0.  0.
        -12    1    1    2    0    0  0.11674383679E+02  0.33127762120E+02 -0.25492823456E+02  0.43400736228E+02  0.00000000000E+00 0.  1.
         11    1    3    3    0    0 -0.11020543173E+02 -0.11959028981E+02  0.97524960456E+01  0.18962645527E+02  0.51100000000E-03 0. -1.
        -11    1    3    3    0    0  0.45687368201E+01 -0.36389956936E+01  0.33733354604E+01  0.67450009770E+01  0.51100000000E-03 0.  1.
         12    1    3    3    0    0 -0.52225773261E+01 -0.17529737446E+02  0.12366991950E+02  0.22079617269E+02  0.00000000000E+00 0. -1.
</event>
<event>
 7    1  0.9175399E-010  0.4778724E+02  0.7816164E-02  0.1312668E+00
        -11   -1    0    0    0    0  0.00000000000E+00  0.00000000000E+00  0.45593999997E+02  0.45594000000E+02  0.51100000000E-03 0. -1.
         11   -1    0    0    0    0 -0.00000000000E+00 -0.00000000000E+00 -0.45593999997E+02  0.45594000000E+02  0.51100000000E-03 0.  1.
    9900012    2    1    2    0    0  0.20398011840E+02 -0.32418816550E+02 -0.20409984564E+02  0.47787239368E+02  0.19999855576E+02 0.  0.
         12    1    1    2    0    0 -0.20398011840E+02  0.32418816550E+02  0.20409984564E+02  0.43400760632E+02  0.00000000000E+00 0. -1.
         11    1    3    3    0    0 -0.23291219663E+01 -0.10692340577E+02 -0.29093140313E+01  0.11323209110E+02  0.51100000000E-03 0. -1.
        -11    1    3    3    0    0  0.14006630458E+02 -0.14643040306E+02 -0.14236660310E+02  0.24764628470E+02  0.51100000000E-03 0.  1.
         12    1    3    3    0    0  0.87205033482E+01 -0.70834356667E+01 -0.32640102226E+01  0.11699401789E+02  0.00000000000E+00 0. -1.
</event>
<event>
 7    1  0.9175399E-010  0.4778728E+02  0.7816164E-02  0.1312668E+00
        -11   -1    0    0    0    0  0.00000000000E+00  0.00000000000E+00  0.45593999997E+02  0.45594000000E+02  0.51100000000E-03 0. -1.
         11   -1    0    0    0    0 -0.00000000000E+00 -0.00000000000E+00 -0.45593999997E+02  0.45594000000E+02  0.51100000000E-03 0.  1.
    9900012    2    1    2    0    0 -0.71726070756E+01  0.11038751354E+02 -0.41356037080E+02  0.47787284261E+02  0.20000060260E+02 0.  0.
         12    1    1    2    0    0  0.71726070756E+01 -0.11038751354E+02  0.41356037080E+02  0.43400715739E+02  0.00000000000E+00 0. -1.
         11    1    3    3    0    0 -0.11371175732E+02  0.12060051916E+02 -0.26377695128E+02  0.31153351189E+02  0.51100000000E-03 0. -1.
        -11    1    3    3    0    0  0.30363983713E+01 -0.33917075999E+01 -0.85925832278E+01  0.97239848982E+01  0.51100000000E-03 0.  1.
        -12    1    3    3    0    0  0.11621702849E+01  0.23704070380E+01 -0.63857587234E+01  0.69099481742E+01  0.00000000000E+00 0.  1.
</event>
<event>
 7    1  0.9175399E-010  0.4778726E+02  0.7816164E-02  0.1312668E+00
        -11   -1    0    0    0    0  0.00000000000E+00  0.00000000000E+00  0.45593999997E+02  0.45594000000E+02  0.51100000000E-03 0. -1.
         11   -1    0    0    0    0 -0.00000000000E+00 -0.00000000000E+00 -0.45593999997E+02  0.45594000000E+02  0.51100000000E-03 0.  1.
    9900012    2    1    2    0    0 -0.20483213384E+02 -0.31085077309E+02 -0.22310993129E+02  0.47787257193E+02  0.19999936846E+02 0.  0.
         12    1    1    2    0    0  0.20483213384E+02  0.31085077309E+02  0.22310993129E+02  0.43400742807E+02  0.00000000000E+00 0. -1.
         11    1    3    3    0    0 -0.96032233638E+01 -0.33748787994E+01 -0.14203882984E+01  0.10277607166E+02  0.51100000000E-03 0. -1.
        -11    1    3    3    0    0  0.96336939816E+00 -0.69621419322E+01 -0.67676831406E+01  0.97571018358E+01  0.51100000000E-03 0.  1.
         12    1    3    3    0    0 -0.11843359418E+02 -0.20748056577E+02 -0.14122921690E+02  0.27752548191E+02  0.00000000000E+00 0. -1.
</event>
<event>
 7    1  0.9175399E-010  0.4778727E+02  0.7816164E-02  0.1312668E+00
        -11   -1    0    0    0    0  0.00000000000E+00  0.00000000000E+00  0.45593999997E+02  0.45594000000E+02  0.51100000000E-03 0. -1.
         11   -1    0    0    0    0 -0.00000000000E+00 -0.00000000000E+00 -0.45593999997E+02  0.45594000000E+02  0.51100000000E-03 0.  1.
    9900012    2    1    2    0    0  0.72293133731E+01  0.26080505678E+02  0.33928864350E+02  0.47787267467E+02  0.19999983691E+02 0.  0.
        -12    1    1    2    0    0 -0.72293133731E+01 -0.26080505678E+02 -0.33928864350E+02  0.43400732533E+02  0.00000000000E+00 0.  1.
         11    1    3    3    0    0  0.88415020558E+01  0.16139879862E+02  0.11677638870E+02  0.21795300650E+02  0.51100000000E-03 0. -1.
        -11    1    3    3    0    0 -0.21604140304E+01  0.70413412207E+01  0.60709779363E+01  0.95448755012E+01  0.51100000000E-03 0.  1.
         12    1    3    3    0    0  0.54822534773E+00  0.28992845951E+01  0.16180247544E+02  0.16447091316E+02  0.00000000000E+00 0. -1.
</event>
<event>
 7    1  0.9175399E-010  0.4778727E+02  0.7816164E-02  0.1312668E+00
        -11   -1    0    0    0    0  0.00000000000E+00  0.00000000000E+00  0.45593999997E+02  0.45594000000E+02  0.51100000000E-03 0.  1.
         11   -1    0    0    0    0 -0.00000000000E+00 -0.00000000000E+00 -0.45593999997E+02  0.45594000000E+02  0.51100000000E-03 0. -1.
    9900012    2    1    2    0    0 -0.25993269468E+02 -0.27736474079E+02 -0.20944242898E+02  0.47787270023E+02  0.19999995342E+02 0.  0.
         12    1    1    2    0    0  0.25993269468E+02  0.27736474079E+02  0.20944242898E+02  0.43400729977E+02  0.00000000000E+00 0. -1.
         11    1    3    3    0    0 -0.12401467602E+01 -0.90216601342E+01 -0.74614897802E+01  0.11772941245E+02  0.51100000000E-03 0. -1.
        -11    1    3    3    0    0 -0.24462170292E+02 -0.18947526495E+02 -0.10008859661E+02  0.32520513643E+02  0.51100000000E-03 0.  1.
         12    1    3    3    0    0 -0.29095241606E+00  0.23271254988E+00 -0.34738934571E+01  0.34938151340E+01  0.00000000000E+00 0. -1.
</event>
<event>
 7    1  0.9175399E-010  0.4778727E+02  0.7816164E-02  0.1312668E+00
        -11   -1    0    0    0    0  0.00000000000E+00  0.00000000000E+00  0.45593999997E+02  0.45594000000E+02  0.51100000000E-03 0. -1.
         11   -1    0    0    0    0 -0.00000000000E+00 -0.00000000000E+00 -0.45593999997E+02  0.45594000000E+02  0.51100000000E-03 0.  1.
    9900012    2    1    2    0    0 -0.14681925215E+00 -0.88749881872E+01 -0.42483369091E+02  0.47787267050E+02  0.19999981789E+02 0.  0.
         12    1    1    2    0    0  0.14681925215E+00  0.88749881872E+01  0.42483369091E+02  0.43400732950E+02  0.00000000000E+00 0. -1.
         11    1    3    3    0    0  0.48471331047E+01 -0.95105301321E+01 -0.17716917141E+02  0.20684149390E+02  0.51100000000E-03 0.  1.
        -11    1    3    3    0    0 -0.12843259244E+01  0.45701934426E+01 -0.16922591886E+02  0.17575843581E+02  0.51100000000E-03 0. -1.
         12    1    3    3    0    0 -0.37096264325E+01 -0.39346514976E+01 -0.78438600640E+01  0.95272740792E+01  0.00000000000E+00 0. -1.
</event>
<event>
 7    1  0.9175399E-010  0.4778727E+02  0.7816164E-02  0.1312668E+00
        -11   -1    0    0    0    0  0.00000000000E+00  0.00000000000E+00  0.45593999997E+02  0.45594000000E+02  0.51100000000E-03 0. -1.
         11   -1    0    0    0    0 -0.00000000000E+00 -0.00000000000E+00 -0.45593999997E+02  0.45594000000E+02  0.51100000000E-03 0.  1.
    9900012    2    1    2    0    0 -0.55475795297E+01 -0.51648804399E+00  0.43041618963E+02  0.47787270035E+02  0.19999995396E+02 0.  0.
        -12    1    1    2    0    0  0.55475795297E+01  0.51648804399E+00 -0.43041618963E+02  0.43400729965E+02  0.00000000000E+00 0.  1.
         11    1    3    3    0    0 -0.60033658512E+01  0.28438138914E+01  0.11226346023E+02  0.13044482522E+02  0.51100000000E-03 0. -1.
        -11    1    3    3    0    0 -0.43494071980E+01  0.26503742695E+01  0.63505711838E+01  0.81407359227E+01  0.51100000000E-03 0.  1.
         12    1    3    3    0    0  0.48051935195E+01 -0.60106762049E+01  0.25464701757E+02  0.26602051589E+02  0.00000000000E+00 0. -1.
</event>
<event>
 7    1  0.9175399E-010  0.4778727E+02  0.7816164E-02  0.1312668E+00
        -11   -1    0    0    0    0  0.00000000000E+00  0.00000000000E+00  0.45593999997E+02  0.45594000000E+02  0.51100000000E-03 0.  1.
         11   -1    0    0    0    0 -0.00000000000E+00 -0.00000000000E+00 -0.45593999997E+02  0.45594000000E+02  0.51100000000E-03 0. -1.
    9900012    2    1    2    0    0 -0.16106009085E+02 -0.25570085503E+02  0.31151091246E+02  0.47787270892E+02  0.19999999305E+02 0.  0.
        -12    1    1    2    0    0  0.16106009085E+02  0.25570085503E+02 -0.31151091246E+02  0.43400729108E+02  0.00000000000E+00 0.  1.
         11    1    3    3    0    0 -0.99547657836E+01 -0.21019453539E+02  0.13360388673E+02  0.26821908483E+02  0.51100000000E-03 0. -1.
        -11    1    3    3    0    0 -0.79752558763E+01 -0.37461489807E+01  0.12350990673E+02  0.15171859126E+02  0.51100000000E-03 0.  1.
         12    1    3    3    0    0  0.18240125745E+01 -0.80448298330E+00  0.54397118996E+01  0.57935032832E+01  0.00000000000E+00 0. -1.
</event>
<event>
 7    1  0.1308861E-009  0.4778727E+02  0.7816164E-02  0.1312668E+00
        -11   -1    0    0    0    0  0.00000000000E+00  0.00000000000E+00  0.45593999997E+02  0.45594000000E+02  0.51100000000E-03 0. -1.
         11   -1    0    0    0    0 -0.00000000000E+00 -0.00000000000E+00 -0.45593999997E+02  0.45594000000E+02  0.51100000000E-03 0.  1.
    9900012    2    1    2    0    0 -0.15099433970E+02  0.51779909736E+01 -0.40358631275E+02  0.47787267113E+02  0.19999982074E+02 0.  0.
         12    1    1    2    0    0  0.15099433970E+02 -0.51779909736E+01  0.40358631275E+02  0.43400732887E+02  0.00000000000E+00 0. -1.
         11    1    3    3    0    0 -0.78888731040E+01  0.26370486599E+01 -0.24934881512E+01  0.86836529126E+01  0.51100000000E-03 0. -1.
        -11    1    3    3    0    0 -0.69921449613E+01 -0.97855076095E-01 -0.24484802363E+02  0.25463802029E+02  0.51100000000E-03 0.  1.
         12    1    3    3    0    0 -0.21841590469E+00  0.26387973898E+01 -0.13380340761E+02  0.13639812171E+02  0.00000000000E+00 0. -1.
</event>
<event>
 7    1  0.9175399E-010  0.4778727E+02  0.7816164E-02  0.1312668E+00
        -11   -1    0    0    0    0  0.00000000000E+00  0.00000000000E+00  0.45593999997E+02  0.45594000000E+02  0.51100000000E-03 0. -1.
         11   -1    0    0    0    0 -0.00000000000E+00 -0.00000000000E+00 -0.45593999997E+02  0.45594000000E+02  0.51100000000E-03 0.  1.
    9900012    2    1    2    0    0 -0.20126277403E+02  0.30431418666E+00 -0.38450796093E+02  0.47787269944E+02  0.19999994982E+02 0.  0.
         12    1    1    2    0    0  0.20126277403E+02 -0.30431418666E+00  0.38450796093E+02  0.43400730056E+02  0.00000000000E+00 0. -1.
         11    1    3    3    0    0 -0.13611857176E+02 -0.32330108111E+01 -0.10877024154E+02  0.17721305522E+02  0.51100000000E-03 0. -1.
        -11    1    3    3    0    0 -0.67981151768E+01  0.62632945631E+01 -0.21092564660E+02  0.23029101435E+02  0.51100000000E-03 0.  1.
        -12    1    3    3    0    0  0.28369494983E+00 -0.27259695654E+01 -0.64812072791E+01  0.70368629865E+01  0.00000000000E+00 0.  1.
</event>
<event>
 7    1  0.9175399E-010  0.4778727E+02  0.7816164E-02  0.1312668E+00
        -11   -1    0    0    0    0  0.00000000000E+00  0.00000000000E+00  0.45593999997E+02  0.45594000000E+02  0.51100000000E-03 0. -1.
         11   -1    0    0    0    0 -0.00000000000E+00 -0.00000000000E+00 -0.45593999997E+02  0.45594000000E+02  0.51100000000E-03 0.  1.
    9900012    2    1    2    0    0 -0.24266439104E+02 -0.66768845398E+01 -0.35357918836E+02  0.47787270993E+02  0.19999999764E+02 0.  0.
         12    1    1    2    0    0  0.24266439104E+02  0.66768845398E+01  0.35357918836E+02  0.43400729007E+02  0.00000000000E+00 0. -1.
         11    1    3    3    0    0  0.22107834794E+01  0.97389849919E+00 -0.32004981620E+01  0.40098915977E+01  0.51100000000E-03 0. -1.
        -11    1    3    3    0    0 -0.13380032960E+02 -0.94482076733E+01 -0.19610500727E+02  0.25551235768E+02  0.51100000000E-03 0.  1.
         12    1    3    3    0    0 -0.13097189623E+02  0.17974246343E+01 -0.12546919947E+02  0.18226143627E+02  0.00000000000E+00 0. -1.
</event>
<event>
 7    1  0.9175399E-010  0.4778727E+02  0.7816164E-02  0.1312668E+00
        -11   -1    0    0    0    0  0.00000000000E+00  0.00000000000E+00  0.45593999997E+02  0.45594000000E+02  0.51100000000E-03 0. -1.
         11   -1    0    0    0    0 -0.00000000000E+00 -0.00000000000E+00 -0.45593999997E+02  0.45594000000E+02  0.51100000000E-03 0.  1.
    9900012    2    1    2    0    0  0.25243738415E+02 -0.35123282274E+02 -0.35681494222E+01  0.47787274463E+02  0.20000015588E+02 0.  0.
         12    1    1    2    0    0 -0.25243738415E+02  0.35123282274E+02  0.35681494222E+01  0.43400725537E+02  0.00000000000E+00 0. -1.
         11    1    3    3    0    0  0.19732481741E+02 -0.21642247160E+02 -0.86045001133E+01  0.30525319330E+02  0.51100000000E-03 0. -1.
        -11    1    3    3    0    0  0.55910114961E+01 -0.14453806915E+02  0.50041961281E+01  0.16285389864E+02  0.51100000000E-03 0.  1.
        -12    1    3    3    0    0 -0.79754822079E-01  0.97277180080E+00  0.32154562870E-01  0.97656526867E+00  0.00000000000E+00 0.  1.
</event>
<event>
 7    1  0.9175399E-010  0.4778723E+02  0.7816164E-02  0.1312668E+00
        -11   -1    0    0    0    0  0.00000000000E+00  0.00000000000E+00  0.45593999997E+02  0.45594000000E+02  0.51100000000E-03 0. -1.
         11   -1    0    0    0    0 -0.00000000000E+00 -0.00000000000E+00 -0.45593999997E+02  0.45594000000E+02  0.51100000000E-03 0.  1.
    9900012    2    1    2    0    0  0.14467600188E+02 -0.13203057389E+02  0.38729762269E+02  0.47787231977E+02  0.19999821874E+02 0.  0.
        -12    1    1    2    0    0 -0.14467600188E+02  0.13203057389E+02 -0.38729762269E+02  0.43400768023E+02  0.00000000000E+00 0.  1.
         11    1    3    3    0    0  0.12919700317E+02 -0.12171818993E+02  0.13726844863E+02  0.22438763425E+02  0.51100000000E-03 0. -1.
        -11    1    3    3    0    0  0.19579891817E+01 -0.19226511580E+01  0.22387392266E+02  0.22554947170E+02  0.51100000000E-03 0.  1.
         12    1    3    3    0    0 -0.41008931029E+00  0.89141276213E+00  0.26155251402E+01  0.27935213824E+01  0.00000000000E+00 0. -1.
</event>
<event>
 7    1  0.9175399E-010  0.4778727E+02  0.7816164E-02  0.1312668E+00
        -11   -1    0    0    0    0  0.00000000000E+00  0.00000000000E+00  0.45593999997E+02  0.45594000000E+02  0.51100000000E-03 0.  1.
         11   -1    0    0    0    0 -0.00000000000E+00 -0.00000000000E+00 -0.45593999997E+02  0.45594000000E+02  0.51100000000E-03 0. -1.
    9900012    2    1    2    0    0 -0.34094020665E+02  0.23147223435E+02  0.13617159689E+02  0.47787271483E+02  0.20000001999E+02 0.  0.
        -12    1    1    2    0    0  0.34094020665E+02 -0.23147223435E+02 -0.13617159689E+02  0.43400728517E+02  0.00000000000E+00 0.  1.
         11    1    3    3    0    0 -0.26852954246E+02  0.21803795565E+02  0.48801008105E+01  0.34932821772E+02  0.51100000000E-03 0. -1.
        -11    1    3    3    0    0 -0.82095310393E+01  0.97902774553E+00  0.83473319353E+01  0.11748738056E+02  0.51100000000E-03 0.  1.
         12    1    3    3    0    0  0.96846462096E+00  0.36440012462E+00  0.38972694366E+00  0.11057116548E+01  0.00000000000E+00 0. -1.
</event>
<event>
 7    1  0.9175399E-010  0.4778727E+02  0.7816164E-02  0.1312668E+00
        -11   -1    0    0    0    0  0.00000000000E+00  0.00000000000E+00  0.45593999997E+02  0.45594000000E+02  0.51100000000E-03 0. -1.
         11   -1    0    0    0    0 -0.00000000000E+00 -0.00000000000E+00 -0.45593999997E+02  0.45594000000E+02  0.51100000000E-03 0.  1.
    9900012    2    1    2    0    0  0.36997199581E+02  0.55300069000E+01  0.22005675918E+02  0.47787268143E+02  0.19999986770E+02 0.  0.
        -12    1    1    2    0    0 -0.36997199581E+02 -0.55300069000E+01 -0.22005675918E+02  0.43400731857E+02  0.00000000000E+00 0.  1.
         11    1    3    3    0    0  0.23628126430E+02  0.97795694581E+01  0.18762109066E+02  0.31716637184E+02  0.51100000000E-03 0. -1.
        -11    1    3    3    0    0  0.84333811695E+01 -0.55327893107E+01  0.41214016079E+01  0.10895853660E+02  0.51100000000E-03 0.  1.
        -12    1    3    3    0    0  0.49356919814E+01  0.12832267526E+01 -0.87783475636E+00  0.51747772989E+01  0.00000000000E+00 0.  1.
</event>
<event>
 7    1  0.9175399E-010  0.4778727E+02  0.7816164E-02  0.1312668E+00
        -11   -1    0    0    0    0  0.00000000000E+00  0.00000000000E+00  0.45593999997E+02  0.45594000000E+02  0.51100000000E-03 0. -1.
         11   -1    0    0    0    0 -0.00000000000E+00 -0.00000000000E+00 -0.45593999997E+02  0.45594000000E+02  0.51100000000E-03 0.  1.
    9900012    2    1    2    0    0  0.48219666862E+01 -0.47898844336E+01 -0.42865243072E+02  0.47787269370E+02  0.19999992366E+02 0.  0.
         12    1    1    2    0    0 -0.48219666862E+01  0.47898844336E+01  0.42865243072E+02  0.43400730630E+02  0.00000000000E+00 0. -1.
         11    1    3    3    0    0  0.90372323226E+01 -0.67640424631E+00 -0.35221563513E+02  0.36368772694E+02  0.51100000000E-03 0. -1.
        -11    1    3    3    0    0 -0.24980607067E+00 -0.23355758368E+01 -0.65194043353E+01  0.69296428992E+01  0.51100000000E-03 0.  1.
         12    1    3    3    0    0 -0.39654595658E+01 -0.17779043506E+01 -0.11242752237E+01  0.44888537765E+01  0.00000000000E+00 0. -1.
</event>
<event>
 7    1  0.9175399E-010  0.4778728E+02  0.7816164E-02  0.1312668E+00
        -11   -1    0    0    0    0  0.00000000000E+00  0.00000000000E+00  0.45593999997E+02  0.45594000000E+02  0.51100000000E-03 0.  1.
         11   -1    0    0    0    0 -0.00000000000E+00 -0.00000000000E+00 -0.45593999997E+02  0.45594000000E+02  0.51100000000E-03 0. -1.
    9900012    2    1    2    0    0  0.83556123443E+01  0.31074887610E+02  0.29123150067E+02  0.47787276879E+02  0.20000026601E+02 0.  0.
        -12    1    1    2    0    0 -0.83556123443E+01 -0.31074887610E+02 -0.29123150067E+02  0.43400723121E+02  0.00000000000E+00 0.  1.
         11    1    3    3    0    0 -0.12101295505E+01  0.84098561963E+01  0.61046008098E+01  0.10462133916E+02  0.51100000000E-03 0. -1.
        -11    1    3    3    0    0 -0.11807843399E+01 -0.20866624771E+01  0.18114825981E+01  0.30049761089E+01  0.51100000000E-03 0.  1.
        -12    1    3    3    0    0  0.10746526235E+02  0.24751693891E+02  0.21207066659E+02  0.34320166854E+02  0.00000000000E+00 0.  1.
</event>
<event>
 7    1  0.9175399E-010  0.4778730E+02  0.7816164E-02  0.1312668E+00
        -11   -1    0    0    0    0  0.00000000000E+00  0.00000000000E+00  0.45593999997E+02  0.45594000000E+02  0.51100000000E-03 0.  1.
         11   -1    0    0    0    0 -0.00000000000E+00 -0.00000000000E+00 -0.45593999997E+02  0.45594000000E+02  0.51100000000E-03 0. -1.
    9900012    2    1    2    0    0 -0.16563241374E+02 -0.39947001138E+02  0.36765304734E+01  0.47787300224E+02  0.20000133040E+02 0.  0.
        -12    1    1    2    0    0  0.16563241374E+02  0.39947001138E+02 -0.36765304734E+01  0.43400699776E+02  0.00000000000E+00 0.  1.
         11    1    3    3    0    0  0.36990743215E-01 -0.11141732222E+02  0.10834786338E+01  0.11194350871E+02  0.51100000000E-03 0. -1.
        -11    1    3    3    0    0  0.50648723239E+00 -0.95364375098E+01 -0.34023274423E+01  0.10137849968E+02  0.51100000000E-03 0.  1.
        -12    1    3    3    0    0 -0.17106719350E+02 -0.19268831406E+02  0.59953792819E+01  0.26455099384E+02  0.00000000000E+00 0.  1.
</event>
<event>
 7    1  0.9175399E-010  0.4778726E+02  0.7816164E-02  0.1312668E+00
        -11   -1    0    0    0    0  0.00000000000E+00  0.00000000000E+00  0.45593999997E+02  0.45594000000E+02  0.51100000000E-03 0. -1.
         11   -1    0    0    0    0 -0.00000000000E+00 -0.00000000000E+00 -0.45593999997E+02  0.45594000000E+02  0.51100000000E-03 0.  1.
    9900012    2    1    2    0    0  0.37198445041E+01 -0.13348394819E+02 -0.41129152924E+02  0.47787261439E+02  0.19999956206E+02 0.  0.
         12    1    1    2    0    0 -0.37198445041E+01  0.13348394819E+02  0.41129152924E+02  0.43400738561E+02  0.00000000000E+00 0. -1.
         11    1    3    3    0    0 -0.35667181729E+01  0.46813707241E-01 -0.89490026644E+00  0.36775694142E+01  0.51100000000E-03 0. -1.
        -11    1    3    3    0    0  0.86394738734E+01 -0.92407339051E+01 -0.35405572546E+02  0.37597689284E+02  0.51100000000E-03 0.  1.
        -12    1    3    3    0    0 -0.13529111964E+01 -0.41544746211E+01 -0.48286801117E+01  0.65120027414E+01  0.00000000000E+00 0.  1.
</event>
<event>
 7    1  0.9175399E-010  0.4778728E+02  0.7816164E-02  0.1312668E+00
        -11   -1    0    0    0    0  0.00000000000E+00  0.00000000000E+00  0.45593999997E+02  0.45594000000E+02  0.51100000000E-03 0. -1.
         11   -1    0    0    0    0 -0.00000000000E+00 -0.00000000000E+00 -0.45593999997E+02  0.45594000000E+02  0.51100000000E-03 0.  1.
    9900012    2    1    2    0    0 -0.22738650059E+02 -0.24454276020E+01 -0.36886265679E+02  0.47787275140E+02  0.20000018672E+02 0.  0.
         12    1    1    2    0    0  0.22738650059E+02  0.24454276020E+01  0.36886265679E+02  0.43400724860E+02  0.00000000000E+00 0. -1.
         11    1    3    3    0    0 -0.11558966593E+02 -0.10802534494E+02 -0.18593336754E+02  0.24413451867E+02  0.51100000000E-03 0. -1.
        -11    1    3    3    0    0 -0.79381787820E+01  0.44285969651E+01 -0.14103290786E+02  0.16778854690E+02  0.51100000000E-03 0.  1.
         12    1    3    3    0    0 -0.32415046842E+01  0.39285099270E+01 -0.41896381395E+01  0.65949685825E+01  0.00000000000E+00 0. -1.
</event>
<event>
 7    1  0.9175399E-010  0.4778726E+02  0.7816164E-02  0.1312668E+00
        -11   -1    0    0    0    0  0.00000000000E+00  0.00000000000E+00  0.45593999997E+02  0.45594000000E+02  0.51100000000E-03 0. -1.
         11   -1    0    0    0    0 -0.00000000000E+00 -0.00000000000E+00 -0.45593999997E+02  0.45594000000E+02  0.51100000000E-03 0.  1.
    9900012    2    1    2    0    0 -0.65107320832E+01  0.18507257430E+01  0.42869674439E+02  0.47787264931E+02  0.19999972125E+02 0.  0.
        -12    1    1    2    0    0  0.65107320832E+01 -0.18507257430E+01 -0.42869674439E+02  0.43400735069E+02  0.00000000000E+00 0.  1.
         11    1    3    3    0    0 -0.11547773637E+02 -0.41398945325E+01  0.26921800692E+02  0.29585015726E+02  0.51100000000E-03 0. -1.
        -11    1    3    3    0    0  0.36828917985E+01  0.21228271799E+01  0.53072742914E+01  0.67997976367E+01  0.51100000000E-03 0.  1.
         12    1    3    3    0    0  0.13541497555E+01  0.38677930956E+01  0.10640599456E+02  0.11402451568E+02  0.00000000000E+00 0. -1.
</event>
<event>
 7    1  0.9175399E-010  0.4778727E+02  0.7816164E-02  0.1312668E+00
        -11   -1    0    0    0    0  0.00000000000E+00  0.00000000000E+00  0.45593999997E+02  0.45594000000E+02  0.51100000000E-03 0. -1.
         11   -1    0    0    0    0 -0.00000000000E+00 -0.00000000000E+00 -0.45593999997E+02  0.45594000000E+02  0.51100000000E-03 0.  1.
    9900012    2    1    2    0    0  0.18037316311E+02 -0.14920952673E+02 -0.36546460931E+02  0.47787269419E+02  0.19999992588E+02 0.  0.
         12    1    1    2    0    0 -0.18037316311E+02  0.14920952673E+02  0.36546460931E+02  0.43400730581E+02  0.00000000000E+00 0. -1.
         11    1    3    3    0    0  0.81880776350E+01 -0.67707204017E+00 -0.15669070390E+02  0.17692450623E+02  0.51100000000E-03 0. -1.
        -11    1    3    3    0    0  0.10990643173E+02 -0.16093862043E+02 -0.18455931245E+02  0.26840790436E+02  0.51100000000E-03 0.  1.
        -12    1    3    3    0    0 -0.11414044973E+01  0.18499814101E+01 -0.24214592970E+01  0.32540283605E+01  0.00000000000E+00 0.  1.
</event>
<event>
 7    1  0.9175399E-010  0.4778727E+02  0.7816164E-02  0.1312668E+00
        -11   -1    0    0    0    0  0.00000000000E+00  0.00000000000E+00  0.45593999997E+02  0.45594000000E+02  0.51100000000E-03 0. -1.
         11   -1    0    0    0    0 -0.00000000000E+00 -0.00000000000E+00 -0.45593999997E+02  0.45594000000E+02  0.51100000000E-03 0.  1.
    9900012    2    1    2    0    0 -0.11035496175E+02  0.11409579977E+01  0.41958779363E+02  0.47787272741E+02  0.20000007735E+02 0.  0.
        -12    1    1    2    0    0  0.11035496175E+02 -0.11409579977E+01 -0.41958779363E+02  0.43400727259E+02  0.00000000000E+00 0.  1.
         11    1    3    3    0    0 -0.95421648458E+01  0.44769807115E+01  0.40132994801E+02  0.41494018101E+02  0.51100000000E-03 0. -1.
        -11    1    3    3    0    0 -0.14344142895E+01 -0.23082671868E+01 -0.12925625550E+01  0.30093786700E+01  0.51100000000E-03 0.  1.
         12    1    3    3    0    0 -0.58917040077E-01 -0.10277555270E+01  0.31183471171E+01  0.32838759695E+01  0.00000000000E+00 0. -1.
</event>
<event>
 7    1  0.9175399E-010  0.4778727E+02  0.7816164E-02  0.1312668E+00
        -11   -1    0    0    0    0  0.00000000000E+00  0.00000000000E+00  0.45593999997E+02  0.45594000000E+02  0.51100000000E-03 0. -1.
         11   -1    0    0    0    0 -0.00000000000E+00 -0.00000000000E+00 -0.45593999997E+02  0.45594000000E+02  0.51100000000E-03 0.  1.
    9900012    2    1    2    0    0  0.12965509165E+02 -0.82065836822E+01  0.40597668500E+02  0.47787272688E+02  0.20000007492E+02 0.  0.
        -12    1    1    2    0    0 -0.12965509165E+02  0.82065836822E+01 -0.40597668500E+02  0.43400727312E+02  0.00000000000E+00 0.  1.
         11    1    3    3    0    0  0.95868174915E+01 -0.51450227604E+01  0.28962819613E+02  0.30939024694E+02  0.51100000000E-03 0. -1.
        -11    1    3    3    0    0 -0.20808661743E+01  0.26409467540E+01  0.82406403596E+00  0.34617460319E+01  0.51100000000E-03 0.  1.
        -12    1    3    3    0    0  0.54595578477E+01 -0.57025076757E+01  0.10810784851E+02  0.13386501962E+02  0.00000000000E+00 0.  1.
</event>
<event>
 7    1  0.9175399E-010  0.4778727E+02  0.7816164E-02  0.1312668E+00
        -11   -1    0    0    0    0  0.00000000000E+00  0.00000000000E+00  0.45593999997E+02  0.45594000000E+02  0.51100000000E-03 0. -1.
         11   -1    0    0    0    0 -0.00000000000E+00 -0.00000000000E+00 -0.45593999997E+02  0.45594000000E+02  0.51100000000E-03 0.  1.
    9900012    2    1    2    0    0  0.24045138201E+01  0.42523774809E+02 -0.83408650550E+01  0.47787272580E+02  0.20000007000E+02 0.  0.
         12    1    1    2    0    0 -0.24045138201E+01 -0.42523774809E+02  0.83408650550E+01  0.43400727420E+02  0.00000000000E+00 0. -1.
         11    1    3    3    0    0 -0.43378858602E+01  0.33976893115E+02 -0.49581226314E+01  0.34609673500E+02  0.51100000000E-03 0. -1.
        -11    1    3    3    0    0  0.65037254601E+01  0.42551391923E+01 -0.10613096547E+00  0.77727677470E+01  0.51100000000E-03 0.  1.
        -12    1    3    3    0    0  0.23867422028E+00  0.42917425024E+01 -0.32766114581E+01  0.54048313330E+01  0.00000000000E+00 0.  1.
</event>
<event>
 7    1  0.9175399E-010  0.4778727E+02  0.7816164E-02  0.1312668E+00
        -11   -1    0    0    0    0  0.00000000000E+00  0.00000000000E+00  0.45593999997E+02  0.45594000000E+02  0.51100000000E-03 0. -1.
         11   -1    0    0    0    0 -0.00000000000E+00 -0.00000000000E+00 -0.45593999997E+02  0.45594000000E+02  0.51100000000E-03 0.  1.
    9900012    2    1    2    0    0  0.84910558039E+01  0.39358314492E+02  0.16200252718E+02  0.47787272628E+02  0.20000007220E+02 0.  0.
        -12    1    1    2    0    0 -0.84910558039E+01 -0.39358314492E+02 -0.16200252718E+02  0.43400727372E+02  0.00000000000E+00 0.  1.
         11    1    3    3    0    0  0.57640287235E+01  0.19332535936E+01  0.20341167764E+01  0.64108601532E+01  0.51100000000E-03 0. -1.
        -11    1    3    3    0    0  0.28682293477E+01  0.32392119977E+02  0.81370389783E+01  0.33521449547E+02  0.51100000000E-03 0.  1.
         12    1    3    3    0    0 -0.14120226730E+00  0.50329409215E+01  0.60290969631E+01  0.78549629274E+01  0.00000000000E+00 0. -1.
</event>
<event>
 7    1  0.9175399E-010  0.4778727E+02  0.7816164E-02  0.1312668E+00
        -11   -1    0    0    0    0  0.00000000000E+00  0.00000000000E+00  0.45593999997E+02  0.45594000000E+02  0.51100000000E-03 0. -1.
         11   -1    0    0    0    0 -0.00000000000E+00 -0.00000000000E+00 -0.45593999997E+02  0.45594000000E+02  0.51100000000E-03 0.  1.
    9900012    2    1    2    0    0 -0.71876574035E+01  0.28093147539E+01 -0.42709118735E+02  0.47787268538E+02  0.19999988572E+02 0.  0.
         12    1    1    2    0    0  0.71876574035E+01 -0.28093147539E+01  0.42709118735E+02  0.43400731462E+02  0.00000000000E+00 0. -1.
         11    1    3    3    0    0 -0.72274083482E+01  0.30212969605E+01 -0.35838027010E+01  0.86143664199E+01  0.51100000000E-03 0. -1.
        -11    1    3    3    0    0 -0.38048962276E+00  0.50778300553E+00 -0.53790476201E+01  0.54163428154E+01  0.51100000000E-03 0.  1.
         12    1    3    3    0    0  0.42024056740E+00 -0.71976521209E+00 -0.33746268414E+02  0.33756559303E+02  0.00000000000E+00 0. -1.
</event>
<event>
 7    1  0.9175399E-010  0.4778727E+02  0.7816164E-02  0.1312668E+00
        -11   -1    0    0    0    0  0.00000000000E+00  0.00000000000E+00  0.45593999997E+02  0.45594000000E+02  0.51100000000E-03 0. -1.
         11   -1    0    0    0    0 -0.00000000000E+00 -0.00000000000E+00 -0.45593999997E+02  0.45594000000E+02  0.51100000000E-03 0.  1.
    9900012    2    1    2    0    0  0.21067119192E+02  0.31799049998E+02 -0.20703143898E+02  0.47787271214E+02  0.20000000775E+02 0.  0.
         12    1    1    2    0    0 -0.21067119192E+02 -0.31799049998E+02  0.20703143898E+02  0.43400728786E+02  0.00000000000E+00 0. -1.
         11    1    3    3    0    0  0.16472264561E+02  0.20772308356E+02 -0.12253931373E+02  0.29205874898E+02  0.51100000000E-03 0. -1.
        -11    1    3    3    0    0 -0.31887764991E+01  0.53463281766E+01 -0.79558435979E+00  0.62757051610E+01  0.51100000000E-03 0.  1.
        -12    1    3    3    0    0  0.77836311305E+01  0.56804134658E+01 -0.76536281648E+01  0.12305691155E+02  0.00000000000E+00 0.  1.
</event>
<event>
 7    1  0.9175399E-010  0.4778727E+02  0.7816164E-02  0.1312668E+00
        -11   -1    0    0    0    0  0.00000000000E+00  0.00000000000E+00  0.45593999997E+02  0.45594000000E+02  0.51100000000E-03 0. -1.
         11   -1    0    0    0    0 -0.00000000000E+00 -0.00000000000E+00 -0.45593999997E+02  0.45594000000E+02  0.51100000000E-03 0.  1.
    9900012    2    1    2    0    0 -0.31136144159E+02  0.27756533836E+02 -0.11989101184E+02  0.47787272001E+02  0.20000004362E+02 0.  0.
         12    1    1    2    0    0  0.31136144159E+02 -0.27756533836E+02  0.11989101184E+02  0.43400727999E+02  0.00000000000E+00 0. -1.
         11    1    3    3    0    0 -0.64963791841E+01  0.34829474279E+01  0.49214709137E+01  0.88631112768E+01  0.51100000000E-03 0. -1.
        -11    1    3    3    0    0 -0.18744504186E+02  0.21557668365E+02 -0.13880384948E+02  0.31760897170E+02  0.51100000000E-03 0.  1.
        -12    1    3    3    0    0 -0.58952607886E+01  0.27159180433E+01 -0.30301871489E+01  0.71632635538E+01  0.00000000000E+00 0.  1.
</event>
<event>
 7    1  0.9175399E-010  0.4778727E+02  0.7816164E-02  0.1312668E+00
        -11   -1    0    0    0    0  0.00000000000E+00  0.00000000000E+00  0.45593999997E+02  0.45594000000E+02  0.51100000000E-03 0. -1.
         11   -1    0    0    0    0 -0.00000000000E+00 -0.00000000000E+00 -0.45593999997E+02  0.45594000000E+02  0.51100000000E-03 0.  1.
    9900012    2    1    2    0    0  0.16115364843E+02  0.20082395874E+02  0.34937310118E+02  0.47787271361E+02  0.20000001445E+02 0.  0.
        -12    1    1    2    0    0 -0.16115364843E+02 -0.20082395874E+02 -0.34937310118E+02  0.43400728639E+02  0.00000000000E+00 0.  1.
         11    1    3    3    0    0  0.93953894605E+01  0.16670208278E+02  0.34713987449E+02  0.39638745086E+02  0.51100000000E-03 0. -1.
        -11    1    3    3    0    0  0.63139866940E+01  0.19213424983E+01  0.21570070631E+00  0.66033712620E+01  0.51100000000E-03 0.  1.
         12    1    3    3    0    0  0.40598868888E+00  0.14908450975E+01  0.76219630600E-02  0.15451550131E+01  0.00000000000E+00 0. -1.
</event>
<event>
 7    1  0.9175399E-010  0.4778727E+02  0.7816164E-02  0.1312668E+00
        -11   -1    0    0    0    0  0.00000000000E+00  0.00000000000E+00  0.45593999997E+02  0.45594000000E+02  0.51100000000E-03 0. -1.
         11   -1    0    0    0    0 -0.00000000000E+00 -0.00000000000E+00 -0.45593999997E+02  0.45594000000E+02  0.51100000000E-03 0.  1.
    9900012    2    1    2    0    0 -0.21882830534E+01  0.70184180006E+01  0.42773549890E+02  0.47787270235E+02  0.19999996310E+02 0.  0.
        -12    1    1    2    0    0  0.21882830534E+01 -0.70184180006E+01 -0.42773549890E+02  0.43400729765E+02  0.00000000000E+00 0.  1.
         11    1    3    3    0    0 -0.86363335053E+00  0.27944150278E+01  0.31050901000E+02  0.31188348322E+02  0.51100000000E-03 0. -1.
        -11    1    3    3    0    0  0.29824213410E+01  0.77482907919E+00 -0.56168611525E+00  0.31322018949E+01  0.51100000000E-03 0.  1.
        -12    1    3    3    0    0 -0.43070710439E+01  0.34491738936E+01  0.12284335005E+02  0.13466720018E+02  0.00000000000E+00 0.  1.
</event>
<event>
 7    1  0.9175399E-010  0.4778729E+02  0.7816164E-02  0.1312668E+00
        -11   -1    0    0    0    0  0.00000000000E+00  0.00000000000E+00  0.45593999997E+02  0.45594000000E+02  0.51100000000E-03 0. -1.
         11   -1    0    0    0    0 -0.00000000000E+00 -0.00000000000E+00 -0.45593999997E+02  0.45594000000E+02  0.51100000000E-03 0.  1.
    9900012    2    1    2    0    0  0.30869323467E+02  0.21384326059E+02 -0.21758158475E+02  0.47787285807E+02  0.20000067306E+02 0.  0.
         12    1    1    2    0    0 -0.30869323467E+02 -0.21384326059E+02  0.21758158475E+02  0.43400714193E+02  0.00000000000E+00 0. -1.
         11    1    3    3    0    0  0.22516572591E+02  0.13837823626E+02 -0.87213378909E+01  0.27830615136E+02  0.51100000000E-03 0. -1.
        -11    1    3    3    0    0  0.90901749640E+01  0.51044394997E+01 -0.13798806725E+02  0.17294324236E+02  0.51100000000E-03 0.  1.
         12    1    3    3    0    0 -0.73742408865E+00  0.24420629332E+01  0.76198614175E+00  0.26623464343E+01  0.00000000000E+00 0. -1.
</event>
<event>
 7    1  0.9175399E-010  0.4778730E+02  0.7816164E-02  0.1312668E+00
        -11   -1    0    0    0    0  0.00000000000E+00  0.00000000000E+00  0.45593999997E+02  0.45594000000E+02  0.51100000000E-03 0.  1.
         11   -1    0    0    0    0 -0.00000000000E+00 -0.00000000000E+00 -0.45593999997E+02  0.45594000000E+02  0.51100000000E-03 0. -1.
    9900012    2    1    2    0    0  0.22412964494E+02 -0.27075045076E+02  0.25460200216E+02  0.47787299103E+02  0.20000127930E+02 0.  0.
        -12    1    1    2    0    0 -0.22412964494E+02  0.27075045076E+02 -0.25460200216E+02  0.43400700897E+02  0.00000000000E+00 0.  1.
         11    1    3    3    0    0  0.11317186276E+02 -0.34459495527E+01  0.28625706740E+01  0.12171589241E+02  0.51100000000E-03 0. -1.
        -11    1    3    3    0    0  0.58026908824E-01 -0.42553228152E+01  0.77050338058E+01  0.88021977706E+01  0.51100000000E-03 0.  1.
         12    1    3    3    0    0  0.11037751310E+02 -0.19373772708E+02  0.14892595737E+02  0.26813512092E+02  0.00000000000E+00 0. -1.
</event>
<event>
 7    1  0.9175399E-010  0.4778727E+02  0.7816164E-02  0.1312668E+00
        -11   -1    0    0    0    0  0.00000000000E+00  0.00000000000E+00  0.45593999997E+02  0.45594000000E+02  0.51100000000E-03 0. -1.
         11   -1    0    0    0    0 -0.00000000000E+00 -0.00000000000E+00 -0.45593999997E+02  0.45594000000E+02  0.51100000000E-03 0.  1.
    9900012    2    1    2    0    0 -0.48364971923E+01  0.19398608129E+01 -0.43086757891E+02  0.47787268778E+02  0.19999989667E+02 0.  0.
         12    1    1    2    0    0  0.48364971923E+01 -0.19398608129E+01  0.43086757891E+02  0.43400731222E+02  0.00000000000E+00 0. -1.
         11    1    3    3    0    0 -0.38319389644E+01  0.47673603090E+01 -0.43831094593E+01  0.75248341733E+01  0.51100000000E-03 0. -1.
        -11    1    3    3    0    0 -0.18052499950E+00 -0.69121976268E+01 -0.23190841651E+02  0.24199714916E+02  0.51100000000E-03 0.  1.
        -12    1    3    3    0    0 -0.82403322836E+00  0.40846981307E+01 -0.15512806781E+02  0.16062719688E+02  0.00000000000E+00 0.  1.
</event>
<event>
 7    1  0.9175399E-010  0.4778727E+02  0.7816164E-02  0.1312668E+00
        -11   -1    0    0    0    0  0.00000000000E+00  0.00000000000E+00  0.45593999997E+02  0.45594000000E+02  0.51100000000E-03 0. -1.
         11   -1    0    0    0    0 -0.00000000000E+00 -0.00000000000E+00 -0.45593999997E+02  0.45594000000E+02  0.51100000000E-03 0.  1.
    9900012    2    1    2    0    0 -0.47840266325E+01  0.19101688633E+02  0.38676373966E+02  0.47787270484E+02  0.19999997443E+02 0.  0.
        -12    1    1    2    0    0  0.47840266325E+01 -0.19101688633E+02 -0.38676373966E+02  0.43400729516E+02  0.00000000000E+00 0.  1.
         11    1    3    3    0    0 -0.28714080140E+01  0.69782320559E+01  0.32174869582E+02  0.33047888578E+02  0.51100000000E-03 0. -1.
        -11    1    3    3    0    0 -0.13528013207E+01  0.12300212843E+02  0.67571311700E+01  0.14099082570E+02  0.51100000000E-03 0.  1.
         12    1    3    3    0    0 -0.55981729777E+00 -0.17675626663E+00 -0.25562678644E+00  0.64029933517E+00  0.00000000000E+00 0. -1.
</event>
<event>
 7    1  0.9175399E-010  0.4778727E+02  0.7816164E-02  0.1312668E+00
        -11   -1    0    0    0    0  0.00000000000E+00  0.00000000000E+00  0.45593999997E+02  0.45594000000E+02  0.51100000000E-03 0. -1.
         11   -1    0    0    0    0 -0.00000000000E+00 -0.00000000000E+00 -0.45593999997E+02  0.45594000000E+02  0.51100000000E-03 0.  1.
    9900012    2    1    2    0    0  0.10680650719E+02 -0.37738227057E+02  0.18584219865E+02  0.47787270638E+02  0.19999998146E+02 0.  0.
        -12    1    1    2    0    0 -0.10680650719E+02  0.37738227057E+02 -0.18584219865E+02  0.43400729362E+02  0.00000000000E+00 0.  1.
         11    1    3    3    0    0  0.20564896417E+01 -0.45705924053E+01 -0.61019581566E-01  0.50123036852E+01  0.51100000000E-03 0. -1.
        -11    1    3    3    0    0  0.78463791466E+01 -0.34848424304E+02  0.19542358761E+02  0.40717098723E+02  0.51100000000E-03 0.  1.
        -12    1    3    3    0    0  0.77778193094E+00  0.16807896524E+01 -0.89711931437E+00  0.20578682299E+01  0.00000000000E+00 0.  1.
</event>
<event>
 7    1  0.9175399E-010  0.4778727E+02  0.7816164E-02  0.1312668E+00
        -11   -1    0    0    0    0  0.00000000000E+00  0.00000000000E+00  0.45593999997E+02  0.45594000000E+02  0.51100000000E-03 0. -1.
         11   -1    0    0    0    0 -0.00000000000E+00 -0.00000000000E+00 -0.45593999997E+02  0.45594000000E+02  0.51100000000E-03 0.  1.
    9900012    2    1    2    0    0  0.18047599125E+02  0.36229089893E+02 -0.15663996020E+02  0.47787267749E+02  0.19999984974E+02 0.  0.
         12    1    1    2    0    0 -0.18047599125E+02 -0.36229089893E+02  0.15663996020E+02  0.43400732251E+02  0.00000000000E+00 0. -1.
         11    1    3    3    0    0  0.82824236234E+00  0.75906026473E-01  0.30315711868E+01  0.31435920946E+01  0.51100000000E-03 0. -1.
        -11    1    3    3    0    0  0.15371753074E+02  0.34343239280E+02 -0.15937502184E+02  0.40862609473E+02  0.51100000000E-03 0.  1.
         12    1    3    3    0    0  0.18476036887E+01  0.18099445862E+01 -0.27580650232E+01  0.37810661814E+01  0.00000000000E+00 0. -1.
</event>
<event>
 7    1  0.9175399E-010  0.4778728E+02  0.7816164E-02  0.1312668E+00
        -11   -1    0    0    0    0  0.00000000000E+00  0.00000000000E+00  0.45593999997E+02  0.45594000000E+02  0.51100000000E-03 0. -1.
         11   -1    0    0    0    0 -0.00000000000E+00 -0.00000000000E+00 -0.45593999997E+02  0.45594000000E+02  0.51100000000E-03 0.  1.
    9900012    2    1    2    0    0  0.25014323204E+02 -0.31822202941E+02  0.15660583096E+02  0.47787276178E+02  0.20000023407E+02 0.  0.
        -12    1    1    2    0    0 -0.25014323204E+02  0.31822202941E+02 -0.15660583096E+02  0.43400723822E+02  0.00000000000E+00 0.  1.
         11    1    3    3    0    0  0.52743195288E+01 -0.16431308060E+00  0.27552286730E-02  0.52768791091E+01  0.51100000000E-03 0. -1.
        -11    1    3    3    0    0  0.78717273348E+01 -0.24194859137E+02  0.89787765382E+01  0.26980988274E+02  0.51100000000E-03 0.  1.
        -12    1    3    3    0    0  0.11868276340E+02 -0.74630307239E+01  0.66790513288E+01  0.15529408795E+02  0.00000000000E+00 0.  1.
</event>
<event>
 7    1  0.9175399E-010  0.4778727E+02  0.7816164E-02  0.1312668E+00
        -11   -1    0    0    0    0  0.00000000000E+00  0.00000000000E+00  0.45593999997E+02  0.45594000000E+02  0.51100000000E-03 0. -1.
         11   -1    0    0    0    0 -0.00000000000E+00 -0.00000000000E+00 -0.45593999997E+02  0.45594000000E+02  0.51100000000E-03 0.  1.
    9900012    2    1    2    0    0  0.18655237088E+02 -0.99161888016E+01 -0.37911405287E+02  0.47787270490E+02  0.19999997473E+02 0.  0.
         12    1    1    2    0    0 -0.18655237088E+02  0.99161888016E+01  0.37911405287E+02  0.43400729510E+02  0.00000000000E+00 0. -1.
         11    1    3    3    0    0  0.15900136375E+01  0.35909670402E+01 -0.12280410718E+02  0.12893086338E+02  0.51100000000E-03 0.  1.
        -11    1    3    3    0    0  0.94910826787E+01 -0.60454392899E+01 -0.64682643089E+01  0.12979461855E+02  0.51100000000E-03 0. -1.
        -12    1    3    3    0    0  0.75741407717E+01 -0.74617165520E+01 -0.19162730260E+02  0.21914722297E+02  0.00000000000E+00 0.  1.
</event>
<event>
 7    1  0.9175399E-010  0.4778728E+02  0.7816164E-02  0.1312668E+00
        -11   -1    0    0    0    0  0.00000000000E+00  0.00000000000E+00  0.45593999997E+02  0.45594000000E+02  0.51100000000E-03 0.  1.
         11   -1    0    0    0    0 -0.00000000000E+00 -0.00000000000E+00 -0.45593999997E+02  0.45594000000E+02  0.51100000000E-03 0. -1.
    9900012    2    1    2    0    0 -0.16999115680E+02 -0.38080949815E+02 -0.12020574824E+02  0.47787275446E+02  0.20000020069E+02 0.  0.
         12    1    1    2    0    0  0.16999115680E+02  0.38080949815E+02  0.12020574824E+02  0.43400724554E+02  0.00000000000E+00 0. -1.
         11    1    3    3    0    0 -0.12824069667E+02 -0.30085159269E+02 -0.31553393229E+01  0.32856197856E+02  0.51100000000E-03 0. -1.
        -11    1    3    3    0    0  0.23872238098E+01 -0.19832628918E+01 -0.25699930967E+01  0.40295203181E+01  0.51100000000E-03 0.  1.
         12    1    3    3    0    0 -0.65622698231E+01 -0.60125276538E+01 -0.62952424039E+01  0.10901557271E+02  0.00000000000E+00 0. -1.
</event>
<event>
 7    1  0.9175399E-010  0.4778727E+02  0.7816164E-02  0.1312668E+00
        -11   -1    0    0    0    0  0.00000000000E+00  0.00000000000E+00  0.45593999997E+02  0.45594000000E+02  0.51100000000E-03 0. -1.
         11   -1    0    0    0    0 -0.00000000000E+00 -0.00000000000E+00 -0.45593999997E+02  0.45594000000E+02  0.51100000000E-03 0.  1.
    9900012    2    1    2    0    0  0.20635589495E+02  0.16973950598E+02  0.34200597863E+02  0.47787269051E+02  0.19999990913E+02 0.  0.
        -12    1    1    2    0    0 -0.20635589495E+02 -0.16973950598E+02 -0.34200597863E+02  0.43400730949E+02  0.00000000000E+00 0.  1.
         11    1    3    3    0    0  0.22550200651E+02  0.10886195734E+02  0.22042222345E+02  0.33359861707E+02  0.51100000000E-03 0. -1.
        -11    1    3    3    0    0 -0.16641292020E+01  0.26191951943E+01  0.20038425454E+01  0.36938996568E+01  0.51100000000E-03 0.  1.
         12    1    3    3    0    0 -0.25048195383E+00  0.34685596690E+01  0.10154532973E+02  0.10733507688E+02  0.00000000000E+00 0. -1.
</event>
<event>
 7    1  0.9175399E-010  0.4778727E+02  0.7816164E-02  0.1312668E+00
        -11   -1    0    0    0    0  0.00000000000E+00  0.00000000000E+00  0.45593999997E+02  0.45594000000E+02  0.51100000000E-03 0. -1.
         11   -1    0    0    0    0 -0.00000000000E+00 -0.00000000000E+00 -0.45593999997E+02  0.45594000000E+02  0.51100000000E-03 0.  1.
    9900012    2    1    2    0    0 -0.29672389911E+02 -0.65352677840E+01 -0.30991336338E+02  0.47787269867E+02  0.19999994633E+02 0.  0.
         12    1    1    2    0    0  0.29672389911E+02  0.65352677840E+01  0.30991336338E+02  0.43400730133E+02  0.00000000000E+00 0. -1.
         11    1    3    3    0    0 -0.83338407385E+01 -0.83248868728E+01 -0.12155025607E+02  0.16926349006E+02  0.51100000000E-03 0. -1.
        -11    1    3    3    0    0 -0.22752611829E+02  0.24178955387E+01 -0.17916961414E+02  0.29061057628E+02  0.51100000000E-03 0.  1.
        -12    1    3    3    0    0  0.14140626565E+01 -0.62827644993E+00 -0.91934931753E+00  0.17998632342E+01  0.00000000000E+00 0.  1.
</event>
<event>
 7    1  0.9175399E-010  0.4778727E+02  0.7816164E-02  0.1312668E+00
        -11   -1    0    0    0    0  0.00000000000E+00  0.00000000000E+00  0.45593999997E+02  0.45594000000E+02  0.51100000000E-03 0. -1.
         11   -1    0    0    0    0 -0.00000000000E+00 -0.00000000000E+00 -0.45593999997E+02  0.45594000000E+02  0.51100000000E-03 0.  1.
    9900012    2    1    2    0    0 -0.15802423256E+02 -0.38245500556E+02  0.13083892492E+02  0.47787272629E+02  0.20000007227E+02 0.  0.
        -12    1    1    2    0    0  0.15802423256E+02  0.38245500556E+02 -0.13083892492E+02  0.43400727371E+02  0.00000000000E+00 0.  1.
         11    1    3    3    0    0  0.25736340196E+01 -0.37652068781E+01  0.16705090378E+01  0.48570542109E+01  0.51100000000E-03 0. -1.
        -11    1    3    3    0    0 -0.20540153243E+02 -0.32410869814E+02  0.10240096876E+02  0.39714253885E+02  0.51100000000E-03 0.  1.
        -12    1    3    3    0    0  0.21640959676E+01 -0.20694238639E+01  0.11732865782E+01  0.32159645334E+01  0.00000000000E+00 0.  1.
</event>
<event>
 7    1  0.9175399E-010  0.4778727E+02  0.7816164E-02  0.1312668E+00
        -11   -1    0    0    0    0  0.00000000000E+00  0.00000000000E+00  0.45593999997E+02  0.45594000000E+02  0.51100000000E-03 0. -1.
         11   -1    0    0    0    0 -0.00000000000E+00 -0.00000000000E+00 -0.45593999997E+02  0.45594000000E+02  0.51100000000E-03 0.  1.
    9900012    2    1    2    0    0 -0.31463658460E+01 -0.23945127459E+02  0.36060428484E+02  0.47787271325E+02  0.20000001279E+02 0.  0.
        -12    1    1    2    0    0  0.31463658460E+01  0.23945127459E+02 -0.36060428484E+02  0.43400728675E+02  0.00000000000E+00 0.  1.
         11    1    3    3    0    0  0.36778030294E+01 -0.26502354430E+01  0.13227744070E+02  0.13982960933E+02  0.51100000000E-03 0.  1.
        -11    1    3    3    0    0 -0.88606627586E+01 -0.15473259623E+02  0.20600040303E+02  0.27245087054E+02  0.51100000000E-03 0. -1.
         12    1    3    3    0    0  0.20364938833E+01 -0.58216323929E+01  0.22326441120E+01  0.65592233370E+01  0.00000000000E+00 0. -1.
</event>
<event>
 7    1  0.9175399E-010  0.4778727E+02  0.7816164E-02  0.1312668E+00
        -11   -1    0    0    0    0  0.00000000000E+00  0.00000000000E+00  0.45593999997E+02  0.45594000000E+02  0.51100000000E-03 0. -1.
         11   -1    0    0    0    0 -0.00000000000E+00 -0.00000000000E+00 -0.45593999997E+02  0.45594000000E+02  0.51100000000E-03 0.  1.
    9900012    2    1    2    0    0  0.37433374928E+02 -0.19401547299E+02 -0.10292990444E+02  0.47787271338E+02  0.20000001337E+02 0.  0.
        -12    1    1    2    0    0 -0.37433374928E+02  0.19401547299E+02  0.10292990444E+02  0.43400728662E+02  0.00000000000E+00 0.  1.
         11    1    3    3    0    0  0.47980764230E+01 -0.78282295835E-01  0.38605787371E-01  0.47988702990E+01  0.51100000000E-03 0. -1.
        -11    1    3    3    0    0  0.27099190242E+02 -0.11135618930E+02 -0.87729373501E+00  0.29311051931E+02  0.51100000000E-03 0.  1.
        -12    1    3    3    0    0  0.55361082632E+01 -0.81876460733E+01 -0.94543024965E+01  0.13677349108E+02  0.00000000000E+00 0.  1.
</event>
<event>
 7    1  0.9175399E-010  0.4778726E+02  0.7816164E-02  0.1312668E+00
        -11   -1    0    0    0    0  0.00000000000E+00  0.00000000000E+00  0.45593999997E+02  0.45594000000E+02  0.51100000000E-03 0. -1.
         11   -1    0    0    0    0 -0.00000000000E+00 -0.00000000000E+00 -0.45593999997E+02  0.45594000000E+02  0.51100000000E-03 0.  1.
    9900012    2    1    2    0    0  0.12039952246E+02 -0.22821806395E+02 -0.34897405884E+02  0.47787259976E+02  0.19999949535E+02 0.  0.
         12    1    1    2    0    0 -0.12039952246E+02  0.22821806395E+02  0.34897405884E+02  0.43400740024E+02  0.00000000000E+00 0. -1.
         11    1    3    3    0    0  0.91435988997E+00 -0.98817679043E+01 -0.10892470779E+02  0.14735376169E+02  0.51100000000E-03 0. -1.
        -11    1    3    3    0    0  0.10135861808E+01 -0.11862434794E+02 -0.89956840763E+01  0.14922032317E+02  0.51100000000E-03 0.  1.
        -12    1    3    3    0    0  0.10112006176E+02 -0.10776036960E+01 -0.15009251028E+02  0.18129851490E+02  0.00000000000E+00 0.  1.
</event>
<event>
 7    1  0.9175399E-010  0.4778727E+02  0.7816164E-02  0.1312668E+00
        -11   -1    0    0    0    0  0.00000000000E+00  0.00000000000E+00  0.45593999997E+02  0.45594000000E+02  0.51100000000E-03 0. -1.
         11   -1    0    0    0    0 -0.00000000000E+00 -0.00000000000E+00 -0.45593999997E+02  0.45594000000E+02  0.51100000000E-03 0.  1.
    9900012    2    1    2    0    0  0.39942106979E+02 -0.12598244954E+02  0.11381371502E+02  0.47787270708E+02  0.19999998464E+02 0.  0.
        -12    1    1    2    0    0 -0.39942106979E+02  0.12598244954E+02 -0.11381371502E+02  0.43400729292E+02  0.00000000000E+00 0.  1.
         11    1    3    3    0    0  0.11716992125E+02  0.79538783980E+00  0.34728302818E+01  0.12246676966E+02  0.51100000000E-03 0. -1.
        -11    1    3    3    0    0  0.29388391815E+02 -0.10073611568E+02  0.77504200333E+01  0.32019122950E+02  0.51100000000E-03 0.  1.
        -12    1    3    3    0    0 -0.11632769617E+01 -0.33200212259E+01  0.15812118721E+00  0.35214707921E+01  0.00000000000E+00 0.  1.
</event>
<event>
 7    1  0.9175399E-010  0.4778727E+02  0.7816164E-02  0.1312668E+00
        -11   -1    0    0    0    0  0.00000000000E+00  0.00000000000E+00  0.45593999997E+02  0.45594000000E+02  0.51100000000E-03 0. -1.
         11   -1    0    0    0    0 -0.00000000000E+00 -0.00000000000E+00 -0.45593999997E+02  0.45594000000E+02  0.51100000000E-03 0.  1.
    9900012    2    1    2    0    0  0.20871288421E+02 -0.13709282866E+02  0.35497436591E+02  0.47787272799E+02  0.20000007999E+02 0.  0.
        -12    1    1    2    0    0 -0.20871288421E+02  0.13709282866E+02 -0.35497436591E+02  0.43400727201E+02  0.00000000000E+00 0.  1.
         11    1    3    3    0    0  0.15404580753E+02 -0.59714001887E+01  0.20382298152E+02  0.26237317062E+02  0.51100000000E-03 0. -1.
        -11    1    3    3    0    0  0.12372605987E+01 -0.64314195311E+01  0.83850819300E+00  0.66028075260E+01  0.51100000000E-03 0.  1.
        -12    1    3    3    0    0  0.42294470699E+01 -0.13064631461E+01  0.14276630246E+02  0.14947148211E+02  0.00000000000E+00 0.  1.
</event>
<event>
 7    1  0.9175399E-010  0.4778727E+02  0.7816164E-02  0.1312668E+00
        -11   -1    0    0    0    0  0.00000000000E+00  0.00000000000E+00  0.45593999997E+02  0.45594000000E+02  0.51100000000E-03 0. -1.
         11   -1    0    0    0    0 -0.00000000000E+00 -0.00000000000E+00 -0.45593999997E+02  0.45594000000E+02  0.51100000000E-03 0.  1.
    9900012    2    1    2    0    0 -0.21932209062E+00 -0.24109236936E+02 -0.36087670201E+02  0.47787270186E+02  0.19999996087E+02 0.  0.
         12    1    1    2    0    0  0.21932209062E+00  0.24109236936E+02  0.36087670201E+02  0.43400729814E+02  0.00000000000E+00 0. -1.
         11    1    3    3    0    0 -0.17950295648E+01  0.17153746557E+01 -0.61836904646E+01  0.66635327996E+01  0.51100000000E-03 0. -1.
        -11    1    3    3    0    0  0.64166824704E+01 -0.14219195081E+02 -0.17827667720E+02  0.23689344847E+02  0.51100000000E-03 0.  1.
        -12    1    3    3    0    0 -0.48409749961E+01 -0.11605416511E+02 -0.12076312017E+02  0.17434392540E+02  0.00000000000E+00 0.  1.
</event>
<event>
 7    1  0.9175399E-010  0.4778728E+02  0.7816164E-02  0.1312668E+00
        -11   -1    0    0    0    0  0.00000000000E+00  0.00000000000E+00  0.45593999997E+02  0.45594000000E+02  0.51100000000E-03 0. -1.
         11   -1    0    0    0    0 -0.00000000000E+00 -0.00000000000E+00 -0.45593999997E+02  0.45594000000E+02  0.51100000000E-03 0.  1.
    9900012    2    1    2    0    0 -0.35674500228E+02 -0.13994997156E+02  0.20373822324E+02  0.47787279407E+02  0.20000038126E+02 0.  0.
        -12    1    1    2    0    0  0.35674500228E+02  0.13994997156E+02 -0.20373822324E+02  0.43400720593E+02  0.00000000000E+00 0.  1.
         11    1    3    3    0    0 -0.29906519615E+02 -0.11890685797E+02  0.11194625929E+02  0.34075034470E+02  0.51100000000E-03 0. -1.
        -11    1    3    3    0    0 -0.72522848854E+01 -0.12496065629E+01  0.94507469589E+01  0.11978053722E+02  0.51100000000E-03 0.  1.
         12    1    3    3    0    0  0.14843042721E+01 -0.85470479531E+00 -0.27155056343E+00  0.17341912143E+01  0.00000000000E+00 0. -1.
</event>
<event>
 7    1  0.9175399E-010  0.4778727E+02  0.7816164E-02  0.1312668E+00
        -11   -1    0    0    0    0  0.00000000000E+00  0.00000000000E+00  0.45593999997E+02  0.45594000000E+02  0.51100000000E-03 0. -1.
         11   -1    0    0    0    0 -0.00000000000E+00 -0.00000000000E+00 -0.45593999997E+02  0.45594000000E+02  0.51100000000E-03 0.  1.
    9900012    2    1    2    0    0 -0.20134301945E+02  0.20886636125E+02  0.32279742518E+02  0.47787268895E+02  0.19999990200E+02 0.  0.
        -12    1    1    2    0    0  0.20134301945E+02 -0.20886636125E+02 -0.32279742518E+02  0.43400731105E+02  0.00000000000E+00 0.  1.
         11    1    3    3    0    0 -0.60491494939E+01  0.15303298656E+02  0.19139755452E+02  0.25241105332E+02  0.51100000000E-03 0. -1.
        -11    1    3    3    0    0  0.53958102580E+00  0.68143512172E+00  0.50590026711E+01  0.51331286557E+01  0.51100000000E-03 0.  1.
         12    1    3    3    0    0 -0.14624733477E+02  0.49019023475E+01  0.80809843949E+01  0.17413034908E+02  0.00000000000E+00 0. -1.
</event>
<event>
 7    1  0.9175399E-010  0.4778727E+02  0.7816164E-02  0.1312668E+00
        -11   -1    0    0    0    0  0.00000000000E+00  0.00000000000E+00  0.45593999997E+02  0.45594000000E+02  0.51100000000E-03 0. -1.
         11   -1    0    0    0    0 -0.00000000000E+00 -0.00000000000E+00 -0.45593999997E+02  0.45594000000E+02  0.51100000000E-03 0.  1.
    9900012    2    1    2    0    0 -0.37427243214E+02 -0.21553217473E+02 -0.42759522663E+01  0.47787268603E+02  0.19999988868E+02 0.  0.
         12    1    1    2    0    0  0.37427243214E+02  0.21553217473E+02  0.42759522663E+01  0.43400731397E+02  0.00000000000E+00 0. -1.
         11    1    3    3    0    0 -0.11922083192E+02  0.19683705711E+01  0.21576429803E+00  0.12085408757E+02  0.51100000000E-03 0. -1.
        -11    1    3    3    0    0 -0.20891580184E+02 -0.21744969102E+02 -0.21491816014E+01  0.30231122798E+02  0.51100000000E-03 0.  1.
         12    1    3    3    0    0 -0.46135798383E+01 -0.17766189420E+01 -0.23425349629E+01  0.54707370474E+01  0.00000000000E+00 0. -1.
</event>
<event>
 7    1  0.9175399E-010  0.4778727E+02  0.7816164E-02  0.1312668E+00
        -11   -1    0    0    0    0  0.00000000000E+00  0.00000000000E+00  0.45593999997E+02  0.45594000000E+02  0.51100000000E-03 0. -1.
         11   -1    0    0    0    0 -0.00000000000E+00 -0.00000000000E+00 -0.45593999997E+02  0.45594000000E+02  0.51100000000E-03 0.  1.
    9900012    2    1    2    0    0 -0.18830326395E+02 -0.38204613980E+02 -0.83336533016E+01  0.47787268453E+02  0.19999988183E+02 0.  0.
         12    1    1    2    0    0  0.18830326395E+02  0.38204613980E+02  0.83336533016E+01  0.43400731547E+02  0.00000000000E+00 0. -1.
         11    1    3    3    0    0  0.10398069191E+01 -0.14998368391E+01 -0.20518173028E+01  0.27460268532E+01  0.51100000000E-03 0. -1.
        -11    1    3    3    0    0 -0.62657976845E+01 -0.25178546782E+02 -0.79386853483E+01  0.27133782707E+02  0.51100000000E-03 0.  1.
        -12    1    3    3    0    0 -0.13604335630E+02 -0.11526230358E+02  0.16568493496E+01  0.17907458892E+02  0.00000000000E+00 0.  1.
</event>
<event>
 7    1  0.9175399E-010  0.4778727E+02  0.7816164E-02  0.1312668E+00
        -11   -1    0    0    0    0  0.00000000000E+00  0.00000000000E+00  0.45593999997E+02  0.45594000000E+02  0.51100000000E-03 0. -1.
         11   -1    0    0    0    0 -0.00000000000E+00 -0.00000000000E+00 -0.45593999997E+02  0.45594000000E+02  0.51100000000E-03 0.  1.
    9900012    2    1    2    0    0 -0.63849342877E+01 -0.20312332441E+02 -0.37818851416E+02  0.47787265474E+02  0.19999974600E+02 0.  0.
         12    1    1    2    0    0  0.63849342877E+01  0.20312332441E+02  0.37818851416E+02  0.43400734526E+02  0.00000000000E+00 0. -1.
         11    1    3    3    0    0 -0.10394704582E+02 -0.52244546228E+01 -0.22081453490E+02  0.24958673802E+02  0.51100000000E-03 0. -1.
        -11    1    3    3    0    0  0.22836806441E+01 -0.66359552840E+01 -0.10827073980E+02  0.12902582340E+02  0.51100000000E-03 0.  1.
         12    1    3    3    0    0  0.17260896503E+01 -0.84519225338E+01 -0.49103239457E+01  0.99260093315E+01  0.00000000000E+00 0. -1.
</event>
<event>
 7    1  0.9175399E-010  0.4778727E+02  0.7816164E-02  0.1312668E+00
        -11   -1    0    0    0    0  0.00000000000E+00  0.00000000000E+00  0.45593999997E+02  0.45594000000E+02  0.51100000000E-03 0. -1.
         11   -1    0    0    0    0 -0.00000000000E+00 -0.00000000000E+00 -0.45593999997E+02  0.45594000000E+02  0.51100000000E-03 0.  1.
    9900012    2    1    2    0    0  0.17390990703E+02  0.15713286662E+02 -0.36527650809E+02  0.47787271792E+02  0.20000003406E+02 0.  0.
         12    1    1    2    0    0 -0.17390990703E+02 -0.15713286662E+02  0.36527650809E+02  0.43400728208E+02  0.00000000000E+00 0. -1.
         11    1    3    3    0    0  0.67674429326E+01  0.21146944323E+01 -0.41752934861E+01  0.82282010393E+01  0.51100000000E-03 0. -1.
        -11    1    3    3    0    0  0.13674537638E+02  0.13649472514E+02 -0.24979290296E+02  0.31579519050E+02  0.51100000000E-03 0.  1.
        -12    1    3    3    0    0 -0.30509898670E+01 -0.50880283538E-01 -0.73730670274E+01  0.79795517018E+01  0.00000000000E+00 0.  1.
</event>
<event>
 7    1  0.9175399E-010  0.4778727E+02  0.7816164E-02  0.1312668E+00
        -11   -1    0    0    0    0  0.00000000000E+00  0.00000000000E+00  0.45593999997E+02  0.45594000000E+02  0.51100000000E-03 0.  1.
         11   -1    0    0    0    0 -0.00000000000E+00 -0.00000000000E+00 -0.45593999997E+02  0.45594000000E+02  0.51100000000E-03 0. -1.
    9900012    2    1    2    0    0  0.16192737705E+02  0.24979485066E+02 -0.31582341994E+02  0.47787265509E+02  0.19999974760E+02 0.  0.
         12    1    1    2    0    0 -0.16192737705E+02 -0.24979485066E+02  0.31582341994E+02  0.43400734491E+02  0.00000000000E+00 0. -1.
         11    1    3    3    0    0  0.11460134291E+02  0.67778652424E+01 -0.17153178759E+02  0.21714181472E+02  0.51100000000E-03 0. -1.
        -11    1    3    3    0    0  0.64438366720E+01  0.15700407189E+02 -0.75874158169E+01  0.18590177406E+02  0.51100000000E-03 0.  1.
         12    1    3    3    0    0 -0.17112332574E+01  0.25012126349E+01 -0.68417474183E+01  0.74829066306E+01  0.00000000000E+00 0. -1.
</event>
<event>
 7    1  0.1026237E-009  0.4778726E+02  0.7816164E-02  0.1312668E+00
        -11   -1    0    0    0    0  0.00000000000E+00  0.00000000000E+00  0.45593999997E+02  0.45594000000E+02  0.51100000000E-03 0. -1.
         11   -1    0    0    0    0 -0.00000000000E+00 -0.00000000000E+00 -0.45593999997E+02  0.45594000000E+02  0.51100000000E-03 0.  1.
    9900012    2    1    2    0    0 -0.17848312186E+02 -0.17806202543E+02 -0.35327065425E+02  0.47787255208E+02  0.19999927796E+02 0.  0.
         12    1    1    2    0    0  0.17848312186E+02  0.17806202543E+02  0.35327065425E+02  0.43400744792E+02  0.00000000000E+00 0. -1.
         11    1    3    3    0    0 -0.14000047066E+01 -0.11973673277E+02 -0.11353178510E+02  0.16559695875E+02  0.51100000000E-03 0. -1.
        -11    1    3    3    0    0 -0.77320043984E+01  0.62035226254E+00 -0.15952626201E+02  0.17738517749E+02  0.51100000000E-03 0.  1.
         12    1    3    3    0    0 -0.87163030814E+01 -0.64528815281E+01 -0.80212607139E+01  0.13489041584E+02  0.00000000000E+00 0. -1.
</event>
<event>
 7    1  0.9175399E-010  0.4778728E+02  0.7816164E-02  0.1312668E+00
        -11   -1    0    0    0    0  0.00000000000E+00  0.00000000000E+00  0.45593999997E+02  0.45594000000E+02  0.51100000000E-03 0. -1.
         11   -1    0    0    0    0 -0.00000000000E+00 -0.00000000000E+00 -0.45593999997E+02  0.45594000000E+02  0.51100000000E-03 0.  1.
    9900012    2    1    2    0    0 -0.33849723568E+02  0.12564044893E+02  0.24082424398E+02  0.47787283709E+02  0.20000057743E+02 0.  0.
        -12    1    1    2    0    0  0.33849723568E+02 -0.12564044893E+02 -0.24082424398E+02  0.43400716291E+02  0.00000000000E+00 0.  1.
         11    1    3    3    0    0 -0.18752277405E+02  0.11580526072E+02  0.17960338049E+02  0.28431149028E+02  0.51100000000E-03 0. -1.
        -11    1    3    3    0    0 -0.13538119736E+02 -0.30620801837E+01  0.56822763879E+01  0.14998176097E+02  0.51100000000E-03 0.  1.
        -12    1    3    3    0    0 -0.15593264269E+01  0.40455990050E+01  0.43980996099E+00  0.43579585836E+01  0.00000000000E+00 0.  1.
</event>
<event>
 7    1  0.9175399E-010  0.4778727E+02  0.7816164E-02  0.1312668E+00
        -11   -1    0    0    0    0  0.00000000000E+00  0.00000000000E+00  0.45593999997E+02  0.45594000000E+02  0.51100000000E-03 0. -1.
         11   -1    0    0    0    0 -0.00000000000E+00 -0.00000000000E+00 -0.45593999997E+02  0.45594000000E+02  0.51100000000E-03 0.  1.
    9900012    2    1    2    0    0 -0.25842220677E+02 -0.11846793005E+02  0.32794155349E+02  0.47787268450E+02  0.19999988170E+02 0.  0.
        -12    1    1    2    0    0  0.25842220677E+02  0.11846793005E+02 -0.32794155349E+02  0.43400731550E+02  0.00000000000E+00 0.  1.
         11    1    3    3    0    0 -0.90487221875E+01 -0.12317468613E+02  0.13147476917E+02  0.20160742938E+02  0.51100000000E-03 0. -1.
        -11    1    3    3    0    0 -0.12402286608E+02 -0.46136617106E+00  0.19525315670E+02  0.23135849328E+02  0.51100000000E-03 0.  1.
        -12    1    3    3    0    0 -0.43912118815E+01  0.93204177949E+00  0.12136276224E+00  0.44906761837E+01  0.00000000000E+00 0.  1.
</event>
<event>
 7    1  0.9175399E-010  0.4778727E+02  0.7816164E-02  0.1312668E+00
        -11   -1    0    0    0    0  0.00000000000E+00  0.00000000000E+00  0.45593999997E+02  0.45594000000E+02  0.51100000000E-03 0. -1.
         11   -1    0    0    0    0 -0.00000000000E+00 -0.00000000000E+00 -0.45593999997E+02  0.45594000000E+02  0.51100000000E-03 0.  1.
    9900012    2    1    2    0    0 -0.21020464345E+02  0.14867147753E+02  0.34938967099E+02  0.47787269298E+02  0.19999992035E+02 0.  0.
        -12    1    1    2    0    0  0.21020464345E+02 -0.14867147753E+02 -0.34938967099E+02  0.43400730702E+02  0.00000000000E+00 0.  1.
         11    1    3    3    0    0 -0.10250084363E+02  0.42428445520E+01  0.14563952632E+02  0.18307776376E+02  0.51100000000E-03 0. -1.
        -11    1    3    3    0    0 -0.26405997740E+01  0.54240607640E+01 -0.91745642573E+00  0.61020430097E+01  0.51100000000E-03 0.  1.
        -12    1    3    3    0    0 -0.81297802080E+01  0.52002424374E+01  0.21292470893E+02  0.23377449911E+02  0.00000000000E+00 0.  1.
</event>
<event>
 7    1  0.9175399E-010  0.4778727E+02  0.7816164E-02  0.1312668E+00
        -11   -1    0    0    0    0  0.00000000000E+00  0.00000000000E+00  0.45593999997E+02  0.45594000000E+02  0.51100000000E-03 0.  1.
         11   -1    0    0    0    0 -0.00000000000E+00 -0.00000000000E+00 -0.45593999997E+02  0.45594000000E+02  0.51100000000E-03 0. -1.
    9900012    2    1    2    0    0 -0.32611667990E+02 -0.28630645626E+02 -0.62315824141E+00  0.47787273229E+02  0.20000009959E+02 0.  0.
        -12    1    1    2    0    0  0.32611667990E+02  0.28630645626E+02  0.62315824141E+00  0.43400726771E+02  0.00000000000E+00 0.  1.
         11    1    3    3    0    0 -0.23921453899E+02 -0.22575401561E+02 -0.50300581896E+01  0.33274407552E+02  0.51100000000E-03 0. -1.
        -11    1    3    3    0    0 -0.61239055065E+01 -0.82127150059E+01  0.21399176614E+01  0.10465665496E+02  0.51100000000E-03 0.  1.
         12    1    3    3    0    0 -0.25663085850E+01  0.21574709407E+01  0.22669822868E+01  0.40472001806E+01  0.00000000000E+00 0. -1.
</event>
<event>
 7    1  0.9175399E-010  0.4778726E+02  0.7816164E-02  0.1312668E+00
        -11   -1    0    0    0    0  0.00000000000E+00  0.00000000000E+00  0.45593999997E+02  0.45594000000E+02  0.51100000000E-03 0.  1.
         11   -1    0    0    0    0 -0.00000000000E+00 -0.00000000000E+00 -0.45593999997E+02  0.45594000000E+02  0.51100000000E-03 0. -1.
    9900012    2    1    2    0    0  0.35509751866E+02  0.24953575207E+02 -0.24879814277E-01  0.47787262538E+02  0.19999961217E+02 0.  0.
        -12    1    1    2    0    0 -0.35509751866E+02 -0.24953575207E+02  0.24879814277E-01  0.43400737462E+02  0.00000000000E+00 0.  1.
         11    1    3    3    0    0  0.15063349390E+02  0.62481947714E+01 -0.51465037217E+01  0.17100612081E+02  0.51100000000E-03 0. -1.
        -11    1    3    3    0    0  0.15974916932E+02  0.17609621263E+02  0.81979615015E+01  0.25149618388E+02  0.51100000000E-03 0.  1.
         12    1    3    3    0    0  0.44714855449E+01  0.10957591726E+01 -0.30763375941E+01  0.55370320692E+01  0.00000000000E+00 0. -1.
</event>
<event>
 7    1  0.9175399E-010  0.4778727E+02  0.7816164E-02  0.1312668E+00
        -11   -1    0    0    0    0  0.00000000000E+00  0.00000000000E+00  0.45593999997E+02  0.45594000000E+02  0.51100000000E-03 0. -1.
         11   -1    0    0    0    0 -0.00000000000E+00 -0.00000000000E+00 -0.45593999997E+02  0.45594000000E+02  0.51100000000E-03 0.  1.
    9900012    2    1    2    0    0 -0.30929603255E+02 -0.28222950540E+02 -0.11421385091E+02  0.47787270374E+02  0.19999996942E+02 0.  0.
         12    1    1    2    0    0  0.30929603255E+02  0.28222950540E+02  0.11421385091E+02  0.43400729626E+02  0.00000000000E+00 0. -1.
         11    1    3    3    0    0 -0.12751603421E+02 -0.63152254577E+01 -0.11086216417E+02  0.18038560283E+02  0.51100000000E-03 0. -1.
        -11    1    3    3    0    0 -0.16621437127E+02 -0.14855845483E+02  0.13480761290E+01  0.22333509055E+02  0.51100000000E-03 0.  1.
         12    1    3    3    0    0 -0.15565627076E+01 -0.70518795989E+01 -0.16832448033E+01  0.74152010362E+01  0.00000000000E+00 0. -1.
</event>
<event>
 7    1  0.9175399E-010  0.4778727E+02  0.7816164E-02  0.1312668E+00
        -11   -1    0    0    0    0  0.00000000000E+00  0.00000000000E+00  0.45593999997E+02  0.45594000000E+02  0.51100000000E-03 0. -1.
         11   -1    0    0    0    0 -0.00000000000E+00 -0.00000000000E+00 -0.45593999997E+02  0.45594000000E+02  0.51100000000E-03 0.  1.
    9900012    2    1    2    0    0 -0.36285183305E+02 -0.84413889446E+01 -0.22265484450E+02  0.47787269907E+02  0.19999994813E+02 0.  0.
         12    1    1    2    0    0  0.36285183305E+02  0.84413889446E+01  0.22265484450E+02  0.43400730093E+02  0.00000000000E+00 0. -1.
         11    1    3    3    0    0 -0.42927645020E+01  0.28561343439E+00 -0.58757078578E+01  0.72823996865E+01  0.51100000000E-03 0. -1.
        -11    1    3    3    0    0 -0.13769178350E+02 -0.19555144518E+00 -0.14959579063E+02  0.20332671217E+02  0.51100000000E-03 0.  1.
         12    1    3    3    0    0 -0.18223240453E+02 -0.85314509338E+01 -0.14301975293E+01  0.20172199003E+02  0.00000000000E+00 0. -1.
</event>
<event>
 7    1  0.9175399E-010  0.4778728E+02  0.7816164E-02  0.1312668E+00
        -11   -1    0    0    0    0  0.00000000000E+00  0.00000000000E+00  0.45593999997E+02  0.45594000000E+02  0.51100000000E-03 0. -1.
         11   -1    0    0    0    0 -0.00000000000E+00 -0.00000000000E+00 -0.45593999997E+02  0.45594000000E+02  0.51100000000E-03 0.  1.
    9900012    2    1    2    0    0 -0.31766657513E+02  0.14437063636E+02  0.25808389182E+02  0.47787282401E+02  0.20000051777E+02 0.  0.
        -12    1    1    2    0    0  0.31766657513E+02 -0.14437063636E+02 -0.25808389182E+02  0.43400717599E+02  0.00000000000E+00 0.  1.
         11    1    3    3    0    0 -0.13389279956E+02  0.55768245205E+01  0.16177623745E+02  0.21727616063E+02  0.51100000000E-03 0. -1.
        -11    1    3    3    0    0 -0.16669808427E+02  0.25734145596E+01  0.37405953912E+01  0.17277066581E+02  0.51100000000E-03 0.  1.
        -12    1    3    3    0    0 -0.17075691298E+01  0.62868245558E+01  0.58901700454E+01  0.87825997571E+01  0.00000000000E+00 0.  1.
</event>
<event>
 7    1  0.9175399E-010  0.4778728E+02  0.7816164E-02  0.1312668E+00
        -11   -1    0    0    0    0  0.00000000000E+00  0.00000000000E+00  0.45593999997E+02  0.45594000000E+02  0.51100000000E-03 0. -1.
         11   -1    0    0    0    0 -0.00000000000E+00 -0.00000000000E+00 -0.45593999997E+02  0.45594000000E+02  0.51100000000E-03 0.  1.
    9900012    2    1    2    0    0  0.37311539412E+02  0.17153566748E+02 -0.14043749650E+02  0.47787277313E+02  0.20000028581E+02 0.  0.
         12    1    1    2    0    0 -0.37311539412E+02 -0.17153566748E+02  0.14043749650E+02  0.43400722687E+02  0.00000000000E+00 0. -1.
         11    1    3    3    0    0  0.90935837978E+01 -0.10638189549E+01  0.25272478811E+01  0.94979976400E+01  0.51100000000E-03 0. -1.
        -11    1    3    3    0    0  0.27912278802E+02  0.16215786288E+02 -0.14483329099E+02  0.35380981542E+02  0.51100000000E-03 0.  1.
         12    1    3    3    0    0  0.30567681292E+00  0.20015994154E+01 -0.20876684330E+01  0.29082981312E+01  0.00000000000E+00 0. -1.
</event>
<event>
 7    1  0.9175399E-010  0.4778727E+02  0.7816164E-02  0.1312668E+00
        -11   -1    0    0    0    0  0.00000000000E+00  0.00000000000E+00  0.45593999997E+02  0.45594000000E+02  0.51100000000E-03 0. -1.
         11   -1    0    0    0    0 -0.00000000000E+00 -0.00000000000E+00 -0.45593999997E+02  0.45594000000E+02  0.51100000000E-03 0.  1.
    9900012    2    1    2    0    0  0.15516550242E+02  0.11638799444E+02 -0.38825232256E+02  0.47787266785E+02  0.19999980578E+02 0.  0.
         12    1    1    2    0    0 -0.15516550242E+02 -0.11638799444E+02  0.38825232256E+02  0.43400733215E+02  0.00000000000E+00 0. -1.
         11    1    3    3    0    0 -0.40782640043E+00  0.33167179409E+01 -0.10566094532E+01  0.35047630548E+01  0.51100000000E-03 0. -1.
        -11    1    3    3    0    0  0.18404948802E+02  0.59619451406E+01 -0.34470179619E+02  0.39528220470E+02  0.51100000000E-03 0.  1.
        -12    1    3    3    0    0 -0.24805721591E+01  0.23601363626E+01 -0.32984431833E+01  0.47542832604E+01  0.00000000000E+00 0.  1.
</event>
<event>
 7    1  0.9175399E-010  0.4778727E+02  0.7816164E-02  0.1312668E+00
        -11   -1    0    0    0    0  0.00000000000E+00  0.00000000000E+00  0.45593999997E+02  0.45594000000E+02  0.51100000000E-03 0. -1.
         11   -1    0    0    0    0 -0.00000000000E+00 -0.00000000000E+00 -0.45593999997E+02  0.45594000000E+02  0.51100000000E-03 0.  1.
    9900012    2    1    2    0    0  0.53081004348E+00  0.80586195938E+01 -0.42642703946E+02  0.47787270641E+02  0.19999998162E+02 0.  0.
         12    1    1    2    0    0 -0.53081004348E+00 -0.80586195938E+01  0.42642703946E+02  0.43400729359E+02  0.00000000000E+00 0. -1.
         11    1    3    3    0    0  0.36434651885E+01  0.58556506257E+01 -0.37773083734E+02  0.38397517340E+02  0.51100000000E-03 0. -1.
        -11    1    3    3    0    0 -0.49184321170E+01  0.16074068386E+01 -0.53350215224E+01  0.74321723702E+01  0.51100000000E-03 0.  1.
         12    1    3    3    0    0  0.18057769720E+01  0.59556212939E+00  0.46540131065E+00  0.19575809313E+01  0.00000000000E+00 0. -1.
</event>
<event>
 7    1  0.9175399E-010  0.4778727E+02  0.7816164E-02  0.1312668E+00
        -11   -1    0    0    0    0  0.00000000000E+00  0.00000000000E+00  0.45593999997E+02  0.45594000000E+02  0.51100000000E-03 0. -1.
         11   -1    0    0    0    0 -0.00000000000E+00 -0.00000000000E+00 -0.45593999997E+02  0.45594000000E+02  0.51100000000E-03 0.  1.
    9900012    2    1    2    0    0  0.15469767673E+02  0.21684189272E+02  0.34265224334E+02  0.47787269880E+02  0.19999994693E+02 0.  0.
        -12    1    1    2    0    0 -0.15469767673E+02 -0.21684189272E+02 -0.34265224334E+02  0.43400730120E+02  0.00000000000E+00 0.  1.
         11    1    3    3    0    0  0.30290650822E+01  0.10797162625E+02  0.16780236735E+02  0.20182425552E+02  0.51100000000E-03 0. -1.
        -11    1    3    3    0    0  0.33542666250E+01  0.11584231486E+02  0.81281908540E+01  0.14543486876E+02  0.51100000000E-03 0.  1.
        -12    1    3    3    0    0  0.90864359661E+01 -0.69720483900E+00  0.93567967455E+01  0.13061357452E+02  0.00000000000E+00 0.  1.
</event>
<event>
 7    1  0.9175399E-010  0.4778727E+02  0.7816164E-02  0.1312668E+00
        -11   -1    0    0    0    0  0.00000000000E+00  0.00000000000E+00  0.45593999997E+02  0.45594000000E+02  0.51100000000E-03 0. -1.
         11   -1    0    0    0    0 -0.00000000000E+00 -0.00000000000E+00 -0.45593999997E+02  0.45594000000E+02  0.51100000000E-03 0.  1.
    9900012    2    1    2    0    0  0.14418003269E+02  0.39358086870E+02  0.11255472715E+02  0.47787268597E+02  0.19999988841E+02 0.  0.
        -12    1    1    2    0    0 -0.14418003269E+02 -0.39358086870E+02 -0.11255472715E+02  0.43400731403E+02  0.00000000000E+00 0.  1.
         11    1    3    3    0    0  0.80924240385E+01  0.10477839100E+02  0.15907006210E+01  0.13334270424E+02  0.51100000000E-03 0. -1.
        -11    1    3    3    0    0 -0.16489558882E+01  0.12525960747E+02  0.10219156155E+02  0.16249612332E+02  0.51100000000E-03 0.  1.
        -12    1    3    3    0    0  0.79745351186E+01  0.16354287023E+02 -0.55438406111E+00  0.18203385841E+02  0.00000000000E+00 0.  1.
</event>
<event>
 7    1  0.9175399E-010  0.4778727E+02  0.7816164E-02  0.1312668E+00
        -11   -1    0    0    0    0  0.00000000000E+00  0.00000000000E+00  0.45593999997E+02  0.45594000000E+02  0.51100000000E-03 0. -1.
         11   -1    0    0    0    0 -0.00000000000E+00 -0.00000000000E+00 -0.45593999997E+02  0.45594000000E+02  0.51100000000E-03 0.  1.
    9900012    2    1    2    0    0 -0.63566523675E+01 -0.42232126229E+02  0.77242597493E+01  0.47787266091E+02  0.19999977414E+02 0.  0.
        -12    1    1    2    0    0  0.63566523675E+01  0.42232126229E+02 -0.77242597493E+01  0.43400733909E+02  0.00000000000E+00 0.  1.
         11    1    3    3    0    0 -0.19182524840E+01 -0.27496203040E+01  0.61104962621E+01  0.69698112771E+01  0.51100000000E-03 0. -1.
        -11    1    3    3    0    0 -0.65720558699E+00 -0.25113128685E+02 -0.28996942796E+01  0.25288522667E+02  0.51100000000E-03 0.  1.
         12    1    3    3    0    0 -0.37811942964E+01 -0.14369377241E+02  0.45134577669E+01  0.15528932146E+02  0.00000000000E+00 0. -1.
</event>
<event>
 7    1  0.9175399E-010  0.4778727E+02  0.7816164E-02  0.1312668E+00
        -11   -1    0    0    0    0  0.00000000000E+00  0.00000000000E+00  0.45593999997E+02  0.45594000000E+02  0.51100000000E-03 0. -1.
         11   -1    0    0    0    0 -0.00000000000E+00 -0.00000000000E+00 -0.45593999997E+02  0.45594000000E+02  0.51100000000E-03 0.  1.
    9900012    2    1    2    0    0 -0.25650342028E+00  0.40644362696E+02 -0.15218198283E+02  0.47787267611E+02  0.19999984345E+02 0.  0.
         12    1    1    2    0    0  0.25650342028E+00 -0.40644362696E+02  0.15218198283E+02  0.43400732389E+02  0.00000000000E+00 0. -1.
         11    1    3    3    0    0  0.76600537959E+00  0.75167043605E+01 -0.73402174887E-01  0.75559907904E+01  0.51100000000E-03 0. -1.
        -11    1    3    3    0    0 -0.15418203374E+01  0.19230595282E+02  0.50035917129E+00  0.19298791787E+02  0.51100000000E-03 0.  1.
        -12    1    3    3    0    0  0.51931153749E+00  0.13897063053E+02 -0.15645155279E+02  0.20932485034E+02  0.00000000000E+00 0.  1.
</event>
<event>
 7    1  0.9175399E-010  0.4778727E+02  0.7816164E-02  0.1312668E+00
        -11   -1    0    0    0    0  0.00000000000E+00  0.00000000000E+00  0.45593999997E+02  0.45594000000E+02  0.51100000000E-03 0. -1.
         11   -1    0    0    0    0 -0.00000000000E+00 -0.00000000000E+00 -0.45593999997E+02  0.45594000000E+02  0.51100000000E-03 0.  1.
    9900012    2    1    2    0    0  0.15962862896E+01 -0.32686699297E+02 -0.28507107663E+02  0.47787266963E+02  0.19999981391E+02 0.  0.
         12    1    1    2    0    0 -0.15962862896E+01  0.32686699297E+02  0.28507107663E+02  0.43400733037E+02  0.00000000000E+00 0. -1.
         11    1    3    3    0    0  0.95116488224E+00 -0.50846353002E+01  0.21803717255E+01  0.56135774594E+01  0.51100000000E-03 0. -1.
        -11    1    3    3    0    0  0.21570815221E+01 -0.20500442948E+02 -0.27172920141E+02  0.34107019087E+02  0.51100000000E-03 0.  1.
        -12    1    3    3    0    0 -0.15119601148E+01 -0.71016210483E+01 -0.35145592475E+01  0.80666704164E+01  0.00000000000E+00 0.  1.
</event>
<event>
 7    1  0.9175399E-010  0.4778727E+02  0.7816164E-02  0.1312668E+00
        -11   -1    0    0    0    0  0.00000000000E+00  0.00000000000E+00  0.45593999997E+02  0.45594000000E+02  0.51100000000E-03 0. -1.
         11   -1    0    0    0    0 -0.00000000000E+00 -0.00000000000E+00 -0.45593999997E+02  0.45594000000E+02  0.51100000000E-03 0.  1.
    9900012    2    1    2    0    0  0.99840102103E+01 -0.26414557348E+01 -0.42154067681E+02  0.47787272237E+02  0.20000005438E+02 0.  0.
         12    1    1    2    0    0 -0.99840102103E+01  0.26414557348E+01  0.42154067681E+02  0.43400727763E+02  0.00000000000E+00 0. -1.
         11    1    3    3    0    0  0.12456248618E+01  0.67192702642E+01 -0.69679632373E+01  0.97597482610E+01  0.51100000000E-03 0. -1.
        -11    1    3    3    0    0  0.90629862012E+00 -0.57027184099E+01 -0.13614973628E+02  0.14788843147E+02  0.51100000000E-03 0.  1.
         12    1    3    3    0    0  0.78320867284E+01 -0.36580075891E+01 -0.21571130815E+02  0.23238680830E+02  0.00000000000E+00 0. -1.
</event>
<event>
 7    1  0.9175399E-010  0.4778727E+02  0.7816164E-02  0.1312668E+00
        -11   -1    0    0    0    0  0.00000000000E+00  0.00000000000E+00  0.45593999997E+02  0.45594000000E+02  0.51100000000E-03 0. -1.
         11   -1    0    0    0    0 -0.00000000000E+00 -0.00000000000E+00 -0.45593999997E+02  0.45594000000E+02  0.51100000000E-03 0.  1.
    9900012    2    1    2    0    0  0.34436268922E+02  0.19736818507E+02 -0.17556326185E+02  0.47787271767E+02  0.20000003293E+02 0.  0.
         12    1    1    2    0    0 -0.34436268922E+02 -0.19736818507E+02  0.17556326185E+02  0.43400728233E+02  0.00000000000E+00 0. -1.
         11    1    3    3    0    0  0.13906135114E+02  0.16967850232E+02 -0.89155411006E+01  0.23680696964E+02  0.51100000000E-03 0. -1.
        -11    1    3    3    0    0  0.12333827336E+02  0.11564122933E+01 -0.96355982103E+01  0.15694117983E+02  0.51100000000E-03 0.  1.
         12    1    3    3    0    0  0.81963064728E+01  0.16125559811E+01  0.99481312614E+00  0.84124568197E+01  0.00000000000E+00 0. -1.
</event>
<event>
 7    1  0.9175399E-010  0.4778727E+02  0.7816164E-02  0.1312668E+00
        -11   -1    0    0    0    0  0.00000000000E+00  0.00000000000E+00  0.45593999997E+02  0.45594000000E+02  0.51100000000E-03 0.  1.
         11   -1    0    0    0    0 -0.00000000000E+00 -0.00000000000E+00 -0.45593999997E+02  0.45594000000E+02  0.51100000000E-03 0. -1.
    9900012    2    1    2    0    0  0.43322970595E+02  0.12985275281E+01  0.22487724331E+01  0.47787274979E+02  0.20000017939E+02 0.  0.
         12    1    1    2    0    0 -0.43322970595E+02 -0.12985275281E+01 -0.22487724331E+01  0.43400725021E+02  0.00000000000E+00 0. -1.
         11    1    3    3    0    0  0.38851638334E+01  0.19533690511E+01 -0.22514756335E+01  0.48968654721E+01  0.51100000000E-03 0. -1.
        -11    1    3    3    0    0  0.13349734786E+02 -0.74838864125E+01 -0.11149013127E+01  0.15344933362E+02  0.51100000000E-03 0.  1.
        -12    1    3    3    0    0  0.26088071975E+02  0.68290448896E+01  0.56151493794E+01  0.27545476145E+02  0.00000000000E+00 0.  1.
</event>
<event>
 7    1  0.9175399E-010  0.4778727E+02  0.7816164E-02  0.1312668E+00
        -11   -1    0    0    0    0  0.00000000000E+00  0.00000000000E+00  0.45593999997E+02  0.45594000000E+02  0.51100000000E-03 0. -1.
         11   -1    0    0    0    0 -0.00000000000E+00 -0.00000000000E+00 -0.45593999997E+02  0.45594000000E+02  0.51100000000E-03 0.  1.
    9900012    2    1    2    0    0 -0.34023366182E+02  0.26723114449E+02 -0.34509372515E+01  0.47787271202E+02  0.20000000720E+02 0.  0.
        -12    1    1    2    0    0  0.34023366182E+02 -0.26723114449E+02  0.34509372515E+01  0.43400728798E+02  0.00000000000E+00 0.  1.
         11    1    3    3    0    0 -0.14784464338E+02  0.50333932447E+01  0.41696479817E+01  0.16164819760E+02  0.51100000000E-03 0.  1.
        -11    1    3    3    0    0 -0.12009838093E+02  0.11508251402E+02 -0.92453867098E+01  0.19030324144E+02  0.51100000000E-03 0. -1.
         12    1    3    3    0    0 -0.72290637519E+01  0.10181469802E+02  0.16248014767E+01  0.12592127299E+02  0.00000000000E+00 0. -1.
</event>
<event>
 7    1  0.1265515E-009  0.4778727E+02  0.7816164E-02  0.1312668E+00
        -11   -1    0    0    0    0  0.00000000000E+00  0.00000000000E+00  0.45593999997E+02  0.45594000000E+02  0.51100000000E-03 0. -1.
         11   -1    0    0    0    0 -0.00000000000E+00 -0.00000000000E+00 -0.45593999997E+02  0.45594000000E+02  0.51100000000E-03 0.  1.
    9900012    2    1    2    0    0 -0.21482123579E+02 -0.30023227925E+01 -0.37591589894E+02  0.47787271822E+02  0.20000003546E+02 0.  0.
         12    1    1    2    0    0  0.21482123579E+02  0.30023227925E+01  0.37591589894E+02  0.43400728178E+02  0.00000000000E+00 0. -1.
         11    1    3    3    0    0 -0.59843496767E+01  0.56061432385E+01 -0.61304657472E+01  0.10238354048E+02  0.51100000000E-03 0. -1.
        -11    1    3    3    0    0 -0.10073468976E+02 -0.34774329105E+01 -0.26557971580E+02  0.28616309538E+02  0.51100000000E-03 0.  1.
         12    1    3    3    0    0 -0.54243049267E+01 -0.51310331204E+01 -0.49031525664E+01  0.89326082366E+01  0.00000000000E+00 0. -1.
</event>
<event>
 7    1  0.9175399E-010  0.4778722E+02  0.7816164E-02  0.1312668E+00
        -11   -1    0    0    0    0  0.00000000000E+00  0.00000000000E+00  0.45593999997E+02  0.45594000000E+02  0.51100000000E-03 0. -1.
         11   -1    0    0    0    0 -0.00000000000E+00 -0.00000000000E+00 -0.45593999997E+02  0.45594000000E+02  0.51100000000E-03 0.  1.
    9900012    2    1    2    0    0 -0.30327960749E+02  0.24260194145E+02  0.19372292215E+02  0.47787217417E+02  0.19999755490E+02 0.  0.
        -12    1    1    2    0    0  0.30327960749E+02 -0.24260194145E+02 -0.19372292215E+02  0.43400782583E+02  0.00000000000E+00 0.  1.
         11    1    3    3    0    0 -0.29935051620E+01  0.24383720938E+01  0.24335765953E+00  0.38685856375E+01  0.51100000000E-03 0. -1.
        -11    1    3    3    0    0 -0.20932364275E+02  0.71617033894E+01  0.52450661077E+01  0.22736855286E+02  0.51100000000E-03 0.  1.
        -12    1    3    3    0    0 -0.64020913126E+01  0.14660118661E+02  0.13883868448E+02  0.21181776494E+02  0.00000000000E+00 0.  1.
</event>
<event>
 7    1  0.9175399E-010  0.4778727E+02  0.7816164E-02  0.1312668E+00
        -11   -1    0    0    0    0  0.00000000000E+00  0.00000000000E+00  0.45593999997E+02  0.45594000000E+02  0.51100000000E-03 0. -1.
         11   -1    0    0    0    0 -0.00000000000E+00 -0.00000000000E+00 -0.45593999997E+02  0.45594000000E+02  0.51100000000E-03 0.  1.
    9900012    2    1    2    0    0 -0.21055280869E+02  0.28798024633E+02  0.24717853391E+02  0.47787270150E+02  0.19999995922E+02 0.  0.
        -12    1    1    2    0    0  0.21055280869E+02 -0.28798024633E+02 -0.24717853391E+02  0.43400729850E+02  0.00000000000E+00 0.  1.
         11    1    3    3    0    0 -0.28038941976E+01  0.50043581686E+01  0.10455551234E+01  0.58308326273E+01  0.51100000000E-03 0. -1.
        -11    1    3    3    0    0 -0.13252769214E+02  0.25629563412E+02  0.17261462916E+02  0.33622440643E+02  0.51100000000E-03 0.  1.
        -12    1    3    3    0    0 -0.49986174574E+01 -0.18358969473E+01  0.64108353516E+01  0.83339968798E+01  0.00000000000E+00 0.  1.
</event>
<event>
 7    1  0.9175399E-010  0.4778727E+02  0.7816164E-02  0.1312668E+00
        -11   -1    0    0    0    0  0.00000000000E+00  0.00000000000E+00  0.45593999997E+02  0.45594000000E+02  0.51100000000E-03 0. -1.
         11   -1    0    0    0    0 -0.00000000000E+00 -0.00000000000E+00 -0.45593999997E+02  0.45594000000E+02  0.51100000000E-03 0.  1.
    9900012    2    1    2    0    0 -0.26076012568E+01  0.32973973201E+02 -0.28098772076E+02  0.47787268611E+02  0.19999988905E+02 0.  0.
         12    1    1    2    0    0  0.26076012568E+01 -0.32973973201E+02  0.28098772076E+02  0.43400731389E+02  0.00000000000E+00 0. -1.
         11    1    3    3    0    0 -0.45473950379E+01 -0.53360819958E-02 -0.42818584014E+01  0.62460500906E+01  0.51100000000E-03 0. -1.
        -11    1    3    3    0    0  0.18944204191E+01  0.31863425751E+02 -0.24494529668E+02  0.40234919078E+02  0.51100000000E-03 0.  1.
        -12    1    3    3    0    0  0.45373361959E-01  0.11158835312E+01  0.67761599354E+00  0.13062994419E+01  0.00000000000E+00 0.  1.
</event>
<event>
 7    1  0.9175399E-010  0.4778731E+02  0.7816164E-02  0.1312668E+00
        -11   -1    0    0    0    0  0.00000000000E+00  0.00000000000E+00  0.45593999997E+02  0.45594000000E+02  0.51100000000E-03 0. -1.
         11   -1    0    0    0    0 -0.00000000000E+00 -0.00000000000E+00 -0.45593999997E+02  0.45594000000E+02  0.51100000000E-03 0.  1.
    9900012    2    1    2    0    0  0.18669118505E+02  0.28317610049E+02 -0.27077608184E+02  0.47787310033E+02  0.20000177762E+02 0.  0.
         12    1    1    2    0    0 -0.18669118505E+02 -0.28317610049E+02  0.27077608184E+02  0.43400689967E+02  0.00000000000E+00 0. -1.
         11    1    3    3    0    0  0.12531876093E+02  0.93935697765E+01 -0.48966393064E+01  0.16409270195E+02  0.51100000000E-03 0. -1.
        -11    1    3    3    0    0 -0.10867192800E+01  0.11197007236E+02 -0.85816080670E+01  0.14149131674E+02  0.51100000000E-03 0.  1.
        -12    1    3    3    0    0  0.72239616923E+01  0.77270330363E+01 -0.13599360811E+02  0.17228908164E+02  0.00000000000E+00 0.  1.
</event>
<event>
 7    1  0.9613228E-010  0.4778727E+02  0.7816164E-02  0.1312668E+00
        -11   -1    0    0    0    0  0.00000000000E+00  0.00000000000E+00  0.45593999997E+02  0.45594000000E+02  0.51100000000E-03 0. -1.
         11   -1    0    0    0    0 -0.00000000000E+00 -0.00000000000E+00 -0.45593999997E+02  0.45594000000E+02  0.51100000000E-03 0.  1.
    9900012    2    1    2    0    0 -0.64291244402E+01 -0.21855857593E+02 -0.36940641784E+02  0.47787272269E+02  0.20000005583E+02 0.  0.
         12    1    1    2    0    0  0.64291244402E+01  0.21855857593E+02  0.36940641784E+02  0.43400727731E+02  0.00000000000E+00 0. -1.
         11    1    3    3    0    0 -0.14513480233E+01 -0.16849053842E+02 -0.18570721899E+02  0.25117100521E+02  0.51100000000E-03 0. -1.
        -11    1    3    3    0    0  0.95882629886E-01 -0.76809665027E+00 -0.15405152038E+02  0.15424586721E+02  0.51100000000E-03 0.  1.
         12    1    3    3    0    0 -0.50736590468E+01 -0.42387071001E+01 -0.29647678477E+01  0.72455850277E+01  0.00000000000E+00 0. -1.
</event>
<event>
 7    1  0.9175399E-010  0.4778727E+02  0.7816164E-02  0.1312668E+00
        -11   -1    0    0    0    0  0.00000000000E+00  0.00000000000E+00  0.45593999997E+02  0.45594000000E+02  0.51100000000E-03 0. -1.
         11   -1    0    0    0    0 -0.00000000000E+00 -0.00000000000E+00 -0.45593999997E+02  0.45594000000E+02  0.51100000000E-03 0.  1.
    9900012    2    1    2    0    0 -0.35085684041E+02 -0.24868883406E+02  0.58444001532E+01  0.47787267292E+02  0.19999982890E+02 0.  0.
        -12    1    1    2    0    0  0.35085684041E+02  0.24868883406E+02 -0.58444001532E+01  0.43400732708E+02  0.00000000000E+00 0.  1.
         11    1    3    3    0    0 -0.23856193844E+02 -0.20236785690E+02 -0.20335286007E+01  0.31349333623E+02  0.51100000000E-03 0. -1.
        -11    1    3    3    0    0 -0.83188059619E+01  0.60174871175E+00  0.55197407610E+01  0.10001608494E+02  0.51100000000E-03 0.  1.
        -12    1    3    3    0    0 -0.29106842352E+01 -0.52338464269E+01  0.23581879929E+01  0.64363251742E+01  0.00000000000E+00 0.  1.
</event>
<event>
 7    1  0.9175399E-010  0.4778727E+02  0.7816164E-02  0.1312668E+00
        -11   -1    0    0    0    0  0.00000000000E+00  0.00000000000E+00  0.45593999997E+02  0.45594000000E+02  0.51100000000E-03 0. -1.
         11   -1    0    0    0    0 -0.00000000000E+00 -0.00000000000E+00 -0.45593999997E+02  0.45594000000E+02  0.51100000000E-03 0.  1.
    9900012    2    1    2    0    0 -0.31400200508E+02  0.17912637246E+02 -0.24016415510E+02  0.47787269833E+02  0.19999994477E+02 0.  0.
         12    1    1    2    0    0  0.31400200508E+02 -0.17912637246E+02  0.24016415510E+02  0.43400730167E+02  0.00000000000E+00 0. -1.
         11    1    3    3    0    0 -0.18470472110E+02  0.31210773628E+01 -0.41373736198E+01  0.19183777641E+02  0.51100000000E-03 0. -1.
        -11    1    3    3    0    0 -0.80028456274E+00  0.32569726771E+01 -0.59391221889E+01  0.68206670521E+01  0.51100000000E-03 0.  1.
         12    1    3    3    0    0 -0.12129443835E+02  0.11534587207E+02 -0.13939919701E+02  0.21782825140E+02  0.00000000000E+00 0. -1.
</event>
<event>
 7    1  0.9175399E-010  0.4778727E+02  0.7816164E-02  0.1312668E+00
        -11   -1    0    0    0    0  0.00000000000E+00  0.00000000000E+00  0.45593999997E+02  0.45594000000E+02  0.51100000000E-03 0.  1.
         11   -1    0    0    0    0 -0.00000000000E+00 -0.00000000000E+00 -0.45593999997E+02  0.45594000000E+02  0.51100000000E-03 0. -1.
    9900012    2    1    2    0    0  0.35128187316E+02  0.14028531600E+02  0.21279901508E+02  0.47787269002E+02  0.19999990686E+02 0.  0.
        -12    1    1    2    0    0 -0.35128187316E+02 -0.14028531600E+02 -0.21279901508E+02  0.43400730998E+02  0.00000000000E+00 0.  1.
         11    1    3    3    0    0  0.15119648922E+02  0.52450218010E+01  0.17257347112E+02  0.23535718957E+02  0.51100000000E-03 0. -1.
        -11    1    3    3    0    0  0.10909101545E+02  0.93003751546E+01  0.11712094698E+00  0.14335940573E+02  0.51100000000E-03 0.  1.
        -12    1    3    3    0    0  0.90994368487E+01 -0.51686535527E+00  0.39054334489E+01  0.99156094711E+01  0.00000000000E+00 0.  1.
</event>
<event>
 7    1  0.9175399E-010  0.4778727E+02  0.7816164E-02  0.1312668E+00
        -11   -1    0    0    0    0  0.00000000000E+00  0.00000000000E+00  0.45593999997E+02  0.45594000000E+02  0.51100000000E-03 0. -1.
         11   -1    0    0    0    0 -0.00000000000E+00 -0.00000000000E+00 -0.45593999997E+02  0.45594000000E+02  0.51100000000E-03 0.  1.
    9900012    2    1    2    0    0  0.22357443693E+02 -0.24672415702E+01  0.37117124552E+02  0.47787268388E+02  0.19999987889E+02 0.  0.
        -12    1    1    2    0    0 -0.22357443693E+02  0.24672415702E+01 -0.37117124552E+02  0.43400731612E+02  0.00000000000E+00 0.  1.
         11    1    3    3    0    0  0.81631033490E+01  0.48081611087E+01  0.15932063260E+02  0.18536054314E+02  0.51100000000E-03 0. -1.
        -11    1    3    3    0    0  0.64182457491E+01 -0.10022748616E+02  0.11851411910E+02  0.16795991570E+02  0.51100000000E-03 0.  1.
        -12    1    3    3    0    0  0.77760945946E+01  0.27473459368E+01  0.93336493821E+01  0.12455222504E+02  0.00000000000E+00 0.  1.
</event>
<event>
 7    1  0.9175399E-010  0.4778727E+02  0.7816164E-02  0.1312668E+00
        -11   -1    0    0    0    0  0.00000000000E+00  0.00000000000E+00  0.45593999997E+02  0.45594000000E+02  0.51100000000E-03 0.  1.
         11   -1    0    0    0    0 -0.00000000000E+00 -0.00000000000E+00 -0.45593999997E+02  0.45594000000E+02  0.51100000000E-03 0. -1.
    9900012    2    1    2    0    0 -0.37144991423E+02 -0.22026565607E+02 -0.43247260963E+01  0.47787271479E+02  0.20000001983E+02 0.  0.
         12    1    1    2    0    0  0.37144991423E+02  0.22026565607E+02  0.43247260963E+01  0.43400728521E+02  0.00000000000E+00 0. -1.
         11    1    3    3    0    0 -0.40613872113E+01 -0.78277201525E+01  0.48183025526E+01  0.10049084964E+02  0.51100000000E-03 0. -1.
        -11    1    3    3    0    0 -0.23210950793E+02 -0.13116675684E+02 -0.60860524839E+01  0.27346580277E+02  0.51100000000E-03 0.  1.
        -12    1    3    3    0    0 -0.98726534192E+01 -0.10821697706E+01 -0.30569761651E+01  0.10391606239E+02  0.00000000000E+00 0.  1.
</event>
<event>
 7    1  0.9175399E-010  0.4778727E+02  0.7816164E-02  0.1312668E+00
        -11   -1    0    0    0    0  0.00000000000E+00  0.00000000000E+00  0.45593999997E+02  0.45594000000E+02  0.51100000000E-03 0.  1.
         11   -1    0    0    0    0 -0.00000000000E+00 -0.00000000000E+00 -0.45593999997E+02  0.45594000000E+02  0.51100000000E-03 0. -1.
    9900012    2    1    2    0    0  0.25535747079E+02 -0.35092917395E+02 -0.19006114618E+00  0.47787270128E+02  0.19999995821E+02 0.  0.
        -12    1    1    2    0    0 -0.25535747079E+02  0.35092917395E+02  0.19006114618E+00  0.43400729872E+02  0.00000000000E+00 0.  1.
         11    1    3    3    0    0  0.20229129672E+02 -0.26215934257E+02 -0.47308403202E+01  0.33449570202E+02  0.51100000000E-03 0. -1.
        -11    1    3    3    0    0 -0.12651419263E+00 -0.54502075224E+01 -0.13562004591E+01  0.56178330186E+01  0.51100000000E-03 0.  1.
         12    1    3    3    0    0  0.54331315993E+01 -0.34267756156E+01  0.58969796330E+01  0.87198669077E+01  0.00000000000E+00 0. -1.
</event>
<event>
 7    1  0.9175399E-010  0.4778727E+02  0.7816164E-02  0.1312668E+00
        -11   -1    0    0    0    0  0.00000000000E+00  0.00000000000E+00  0.45593999997E+02  0.45594000000E+02  0.51100000000E-03 0. -1.
         11   -1    0    0    0    0 -0.00000000000E+00 -0.00000000000E+00 -0.45593999997E+02  0.45594000000E+02  0.51100000000E-03 0.  1.
    9900012    2    1    2    0    0 -0.20741890586E+02  0.62435306526E+01  0.37608718463E+02  0.47787269540E+02  0.19999993140E+02 0.  0.
        -12    1    1    2    0    0  0.20741890586E+02 -0.62435306526E+01 -0.37608718463E+02  0.43400730460E+02  0.00000000000E+00 0.  1.
         11    1    3    3    0    0 -0.32962860320E+01  0.10082016054E+02  0.13270028308E+02  0.16988413724E+02  0.51100000000E-03 0. -1.
        -11    1    3    3    0    0 -0.32384759383E+01 -0.31648209771E+01  0.74582995126E+01  0.87252535838E+01  0.51100000000E-03 0.  1.
         12    1    3    3    0    0 -0.14207128616E+02 -0.67366442414E+00  0.16880390642E+02  0.22073602232E+02  0.00000000000E+00 0. -1.
</event>
<event>
 7    1  0.9175399E-010  0.4778727E+02  0.7816164E-02  0.1312668E+00
        -11   -1    0    0    0    0  0.00000000000E+00  0.00000000000E+00  0.45593999997E+02  0.45594000000E+02  0.51100000000E-03 0. -1.
         11   -1    0    0    0    0 -0.00000000000E+00 -0.00000000000E+00 -0.45593999997E+02  0.45594000000E+02  0.51100000000E-03 0.  1.
    9900012    2    1    2    0    0 -0.37526014819E+02 -0.20221224549E+02  0.81561831692E+01  0.47787273804E+02  0.20000012582E+02 0.  0.
        -12    1    1    2    0    0  0.37526014819E+02  0.20221224549E+02 -0.81561831692E+01  0.43400726196E+02  0.00000000000E+00 0.  1.
         11    1    3    3    0    0 -0.16374217579E+01  0.25949201962E+01  0.18433901256E+00  0.30738806045E+01  0.51100000000E-03 0.  1.
        -11    1    3    3    0    0 -0.35165267231E+02 -0.21190328782E+02  0.97495449029E+01  0.42198100424E+02  0.51100000000E-03 0. -1.
         12    1    3    3    0    0 -0.72332582994E+00 -0.16258159633E+01 -0.17777007463E+01  0.25152927754E+01  0.00000000000E+00 0. -1.
</event>
<event>
 7    1  0.9175399E-010  0.4778727E+02  0.7816164E-02  0.1312668E+00
        -11   -1    0    0    0    0  0.00000000000E+00  0.00000000000E+00  0.45593999997E+02  0.45594000000E+02  0.51100000000E-03 0. -1.
         11   -1    0    0    0    0 -0.00000000000E+00 -0.00000000000E+00 -0.45593999997E+02  0.45594000000E+02  0.51100000000E-03 0.  1.
    9900012    2    1    2    0    0 -0.50411180141E+01 -0.20727730582E+02  0.37796444958E+02  0.47787274921E+02  0.20000017674E+02 0.  0.
        -12    1    1    2    0    0  0.50411180141E+01  0.20727730582E+02 -0.37796444958E+02  0.43400725079E+02  0.00000000000E+00 0.  1.
         11    1    3    3    0    0  0.20044417274E+01 -0.11555317867E+02  0.24171033917E+02  0.26866001536E+02  0.51100000000E-03 0. -1.
        -11    1    3    3    0    0 -0.42643157036E+01 -0.49765004996E+00 -0.27467242620E+00  0.43020331467E+01  0.51100000000E-03 0.  1.
         12    1    3    3    0    0 -0.27812440379E+01 -0.86747626652E+01  0.13900083468E+02  0.16619240238E+02  0.00000000000E+00 0. -1.
</event>
<event>
 7    1  0.9175399E-010  0.4778727E+02  0.7816164E-02  0.1312668E+00
        -11   -1    0    0    0    0  0.00000000000E+00  0.00000000000E+00  0.45593999997E+02  0.45594000000E+02  0.51100000000E-03 0. -1.
         11   -1    0    0    0    0 -0.00000000000E+00 -0.00000000000E+00 -0.45593999997E+02  0.45594000000E+02  0.51100000000E-03 0.  1.
    9900012    2    1    2    0    0 -0.15846751411E+02  0.15688294468E+02  0.37234140668E+02  0.47787270226E+02  0.19999996270E+02 0.  0.
        -12    1    1    2    0    0  0.15846751411E+02 -0.15688294468E+02 -0.37234140668E+02  0.43400729774E+02  0.00000000000E+00 0.  1.
         11    1    3    3    0    0 -0.30277195756E+01  0.23449305676E+01  0.33332123181E+01  0.50770158375E+01  0.51100000000E-03 0. -1.
        -11    1    3    3    0    0 -0.86599711149E+01  0.11244376841E+02  0.35132977835E+02  0.37891387439E+02  0.51100000000E-03 0.  1.
        -12    1    3    3    0    0 -0.41590607205E+01  0.20989870590E+01 -0.12320494846E+01  0.48188669501E+01  0.00000000000E+00 0.  1.
</event>
<event>
 7    1  0.9175399E-010  0.4778727E+02  0.7816164E-02  0.1312668E+00
        -11   -1    0    0    0    0  0.00000000000E+00  0.00000000000E+00  0.45593999997E+02  0.45594000000E+02  0.51100000000E-03 0. -1.
         11   -1    0    0    0    0 -0.00000000000E+00 -0.00000000000E+00 -0.45593999997E+02  0.45594000000E+02  0.51100000000E-03 0.  1.
    9900012    2    1    2    0    0 -0.25282544131E+02 -0.16825990171E+02 -0.31004877716E+02  0.47787269302E+02  0.19999992053E+02 0.  0.
         12    1    1    2    0    0  0.25282544131E+02  0.16825990171E+02  0.31004877716E+02  0.43400730698E+02  0.00000000000E+00 0. -1.
         11    1    3    3    0    0 -0.43467927373E+01  0.30039442382E+00 -0.63903356938E+01  0.77344188179E+01  0.51100000000E-03 0. -1.
        -11    1    3    3    0    0 -0.29552686110E+01 -0.11562837040E+01  0.23300898801E+01  0.39369942441E+01  0.51100000000E-03 0.  1.
        -12    1    3    3    0    0 -0.17980482783E+02 -0.15970100890E+02 -0.26944631903E+02  0.36115856240E+02  0.00000000000E+00 0.  1.
</event>
<event>
 7    1  0.9175399E-010  0.4778727E+02  0.7816164E-02  0.1312668E+00
        -11   -1    0    0    0    0  0.00000000000E+00  0.00000000000E+00  0.45593999997E+02  0.45594000000E+02  0.51100000000E-03 0. -1.
         11   -1    0    0    0    0 -0.00000000000E+00 -0.00000000000E+00 -0.45593999997E+02  0.45594000000E+02  0.51100000000E-03 0.  1.
    9900012    2    1    2    0    0 -0.74277529723E+01  0.16829042271E+02 -0.39309478260E+02  0.47787271215E+02  0.20000000778E+02 0.  0.
         12    1    1    2    0    0  0.74277529723E+01 -0.16829042271E+02  0.39309478260E+02  0.43400728785E+02  0.00000000000E+00 0. -1.
         11    1    3    3    0    0 -0.84789243109E+01  0.54716861161E+01 -0.94781366290E+01  0.13844369998E+02  0.51100000000E-03 0. -1.
        -11    1    3    3    0    0 -0.17732356079E+01  0.12388531442E+02 -0.19395808810E+02  0.23082839415E+02  0.51100000000E-03 0.  1.
         12    1    3    3    0    0  0.28244069466E+01 -0.10311752874E+01 -0.10435532821E+02  0.10860061802E+02  0.00000000000E+00 0. -1.
</event>
<event>
 7    1  0.9175399E-010  0.4778729E+02  0.7816164E-02  0.1312668E+00
        -11   -1    0    0    0    0  0.00000000000E+00  0.00000000000E+00  0.45593999997E+02  0.45594000000E+02  0.51100000000E-03 0. -1.
         11   -1    0    0    0    0 -0.00000000000E+00 -0.00000000000E+00 -0.45593999997E+02  0.45594000000E+02  0.51100000000E-03 0.  1.
    9900012    2    1    2    0    0  0.19588702671E+00 -0.46210120912E+01  0.43153556334E+02  0.47787290919E+02  0.20000090617E+02 0.  0.
        -12    1    1    2    0    0 -0.19588702671E+00  0.46210120912E+01 -0.43153556334E+02  0.43400709081E+02  0.00000000000E+00 0.  1.
         11    1    3    3    0    0  0.63762585844E+01 -0.25806351999E+01  0.42116562528E+01  0.80656308013E+01  0.51100000000E-03 0. -1.
        -11    1    3    3    0    0 -0.18093488915E+01 -0.33892924544E+00  0.23771939437E+02  0.23843106368E+02  0.51100000000E-03 0.  1.
        -12    1    3    3    0    0 -0.43710226662E+01 -0.17014476458E+01  0.15169960644E+02  0.15878553750E+02  0.00000000000E+00 0.  1.
</event>
<event>
 7    1  0.9175399E-010  0.4778726E+02  0.7816164E-02  0.1312668E+00
        -11   -1    0    0    0    0  0.00000000000E+00  0.00000000000E+00  0.45593999997E+02  0.45594000000E+02  0.51100000000E-03 0. -1.
         11   -1    0    0    0    0 -0.00000000000E+00 -0.00000000000E+00 -0.45593999997E+02  0.45594000000E+02  0.51100000000E-03 0.  1.
    9900012    2    1    2    0    0 -0.26839170865E+02  0.14576208731E+02  0.30835327037E+02  0.47787258680E+02  0.19999943625E+02 0.  0.
        -12    1    1    2    0    0  0.26839170865E+02 -0.14576208731E+02 -0.30835327037E+02  0.43400741320E+02  0.00000000000E+00 0.  1.
         11    1    3    3    0    0  0.26526698745E+01  0.29544602618E+01  0.48905276385E+01  0.62994248742E+01  0.51100000000E-03 0. -1.
        -11    1    3    3    0    0 -0.10779206868E+02  0.15976763857E+01  0.64302548658E+01  0.12652748652E+02  0.51100000000E-03 0.  1.
         12    1    3    3    0    0 -0.18712633871E+02  0.10024072083E+02  0.19514544533E+02  0.28835085154E+02  0.00000000000E+00 0. -1.
</event>
<event>
 7    1  0.9175399E-010  0.4778726E+02  0.7816164E-02  0.1312668E+00
        -11   -1    0    0    0    0  0.00000000000E+00  0.00000000000E+00  0.45593999997E+02  0.45594000000E+02  0.51100000000E-03 0. -1.
         11   -1    0    0    0    0 -0.00000000000E+00 -0.00000000000E+00 -0.45593999997E+02  0.45594000000E+02  0.51100000000E-03 0.  1.
    9900012    2    1    2    0    0  0.14560097865E+02 -0.23724403770E+02  0.33298357084E+02  0.47787258433E+02  0.19999942498E+02 0.  0.
        -12    1    1    2    0    0 -0.14560097865E+02  0.23724403770E+02 -0.33298357084E+02  0.43400741567E+02  0.00000000000E+00 0.  1.
         11    1    3    3    0    0  0.26454295853E+01 -0.46047727084E+00  0.24527514097E+01  0.36368017194E+01  0.51100000000E-03 0. -1.
        -11    1    3    3    0    0 -0.16130458494E+01 -0.15612434516E+01 -0.16591765577E+01  0.27914629029E+01  0.51100000000E-03 0.  1.
        -12    1    3    3    0    0  0.13527714130E+02 -0.21702683048E+02  0.32504782232E+02  0.41358993810E+02  0.00000000000E+00 0.  1.
</event>
<event>
 7    1  0.9175399E-010  0.4778727E+02  0.7816164E-02  0.1312668E+00
        -11   -1    0    0    0    0  0.00000000000E+00  0.00000000000E+00  0.45593999997E+02  0.45594000000E+02  0.51100000000E-03 0. -1.
         11   -1    0    0    0    0 -0.00000000000E+00 -0.00000000000E+00 -0.45593999997E+02  0.45594000000E+02  0.51100000000E-03 0.  1.
    9900012    2    1    2    0    0 -0.22800603347E+02 -0.19834840506E+02  0.31150201048E+02  0.47787269174E+02  0.19999991474E+02 0.  0.
        -12    1    1    2    0    0  0.22800603347E+02  0.19834840506E+02 -0.31150201048E+02  0.43400730826E+02  0.00000000000E+00 0.  1.
         11    1    3    3    0    0 -0.11794446658E+02 -0.61646950885E+01  0.23874797179E+02  0.27333466266E+02  0.51100000000E-03 0. -1.
        -11    1    3    3    0    0 -0.30505063526E+01 -0.70361766199E+01 -0.21285882250E+00  0.76719410564E+01  0.51100000000E-03 0.  1.
         12    1    3    3    0    0 -0.79556503362E+01 -0.66339687972E+01  0.74882626912E+01  0.12781861852E+02  0.00000000000E+00 0. -1.
</event>
<event>
 7    1  0.9175399E-010  0.4778727E+02  0.7816164E-02  0.1312668E+00
        -11   -1    0    0    0    0  0.00000000000E+00  0.00000000000E+00  0.45593999997E+02  0.45594000000E+02  0.51100000000E-03 0. -1.
         11   -1    0    0    0    0 -0.00000000000E+00 -0.00000000000E+00 -0.45593999997E+02  0.45594000000E+02  0.51100000000E-03 0.  1.
    9900012    2    1    2    0    0  0.45176363113E+01  0.21421720015E+02  0.37474315213E+02  0.47787269281E+02  0.19999991962E+02 0.  0.
        -12    1    1    2    0    0 -0.45176363113E+01 -0.21421720015E+02 -0.37474315213E+02  0.43400730719E+02  0.00000000000E+00 0.  1.
         11    1    3    3    0    0  0.49996898997E+01  0.24707621675E+02  0.35451071166E+02  0.43499907069E+02  0.51100000000E-03 0. -1.
        -11    1    3    3    0    0 -0.11464625471E+01 -0.16058642758E+01  0.10772719153E+01  0.22480417000E+01  0.51100000000E-03 0.  1.
         12    1    3    3    0    0  0.66440895868E+00 -0.16800373846E+01  0.94597213137E+00  0.20393205122E+01  0.00000000000E+00 0. -1.
</event>
<event>
 7    1  0.9175399E-010  0.4778727E+02  0.7816164E-02  0.1312668E+00
        -11   -1    0    0    0    0  0.00000000000E+00  0.00000000000E+00  0.45593999997E+02  0.45594000000E+02  0.51100000000E-03 0. -1.
         11   -1    0    0    0    0 -0.00000000000E+00 -0.00000000000E+00 -0.45593999997E+02  0.45594000000E+02  0.51100000000E-03 0.  1.
    9900012    2    1    2    0    0 -0.27418292740E+01 -0.24153697578E+02 -0.35954195884E+02  0.47787274935E+02  0.20000017741E+02 0.  0.
         12    1    1    2    0    0  0.27418292740E+01  0.24153697578E+02  0.35954195884E+02  0.43400725065E+02  0.00000000000E+00 0. -1.
         11    1    3    3    0    0  0.21262845046E+01 -0.30461036507E+01 -0.71037476565E+01  0.80164246565E+01  0.51100000000E-03 0. -1.
        -11    1    3    3    0    0 -0.52834987776E+01 -0.13064599754E+02 -0.28400363326E+02  0.31704570071E+02  0.51100000000E-03 0.  1.
        -12    1    3    3    0    0  0.41538499896E+00 -0.80429941733E+01 -0.45008490091E+00  0.80662802076E+01  0.00000000000E+00 0.  1.
</event>
<event>
 7    1  0.9175399E-010  0.4778727E+02  0.7816164E-02  0.1312668E+00
        -11   -1    0    0    0    0  0.00000000000E+00  0.00000000000E+00  0.45593999997E+02  0.45594000000E+02  0.51100000000E-03 0. -1.
         11   -1    0    0    0    0 -0.00000000000E+00 -0.00000000000E+00 -0.45593999997E+02  0.45594000000E+02  0.51100000000E-03 0.  1.
    9900012    2    1    2    0    0  0.26758647310E+02  0.63759863583E+01 -0.33569998931E+02  0.47787271479E+02  0.20000001982E+02 0.  0.
         12    1    1    2    0    0 -0.26758647310E+02 -0.63759863583E+01  0.33569998931E+02  0.43400728521E+02  0.00000000000E+00 0. -1.
         11    1    3    3    0    0  0.57456937765E+01 -0.24126020447E+01 -0.74780808620E+00  0.62763733791E+01  0.51100000000E-03 0. -1.
        -11    1    3    3    0    0  0.20583448222E+02  0.75170355709E+01 -0.33481996107E+02  0.40015349905E+02  0.51100000000E-03 0.  1.
        -12    1    3    3    0    0  0.42950531198E+00  0.12715528321E+01  0.65980526239E+00  0.14955481945E+01  0.00000000000E+00 0.  1.
</event>
<event>
 7    1  0.9175399E-010  0.4778725E+02  0.7816164E-02  0.1312668E+00
        -11   -1    0    0    0    0  0.00000000000E+00  0.00000000000E+00  0.45593999997E+02  0.45594000000E+02  0.51100000000E-03 0. -1.
         11   -1    0    0    0    0 -0.00000000000E+00 -0.00000000000E+00 -0.45593999997E+02  0.45594000000E+02  0.51100000000E-03 0.  1.
    9900012    2    1    2    0    0 -0.25112364523E+02 -0.12867511461E+02  0.32976069045E+02  0.47787253085E+02  0.19999918117E+02 0.  0.
        -12    1    1    2    0    0  0.25112364523E+02  0.12867511461E+02 -0.32976069045E+02  0.43400746915E+02  0.00000000000E+00 0.  1.
         11    1    3    3    0    0 -0.15281943205E+01  0.29022014242E+01 -0.85643788763E+00  0.33899317256E+01  0.51100000000E-03 0.  1.
        -11    1    3    3    0    0 -0.21908378097E+02 -0.14937913422E+02  0.29429385731E+02  0.39613217907E+02  0.51100000000E-03 0. -1.
        -12    1    3    3    0    0 -0.16757921054E+01 -0.83179946322E+00  0.44031212014E+01  0.47841034523E+01  0.00000000000E+00 0.  1.
</event>
<event>
 7    1  0.9175399E-010  0.4778727E+02  0.7816164E-02  0.1312668E+00
        -11   -1    0    0    0    0  0.00000000000E+00  0.00000000000E+00  0.45593999997E+02  0.45594000000E+02  0.51100000000E-03 0. -1.
         11   -1    0    0    0    0 -0.00000000000E+00 -0.00000000000E+00 -0.45593999997E+02  0.45594000000E+02  0.51100000000E-03 0.  1.
    9900012    2    1    2    0    0 -0.14947082302E+02 -0.22733649949E+02  0.33814041234E+02  0.47787268510E+02  0.19999988443E+02 0.  0.
        -12    1    1    2    0    0  0.14947082302E+02  0.22733649949E+02 -0.33814041234E+02  0.43400731490E+02  0.00000000000E+00 0.  1.
         11    1    3    3    0    0 -0.82271880940E+01 -0.14690678112E+01  0.41328355982E+01  0.93233639053E+01  0.51100000000E-03 0.  1.
        -11    1    3    3    0    0 -0.56054246996E+01 -0.19014318359E+02  0.29973617606E+02  0.35935815579E+02  0.51100000000E-03 0. -1.
         12    1    3    3    0    0 -0.11144695082E+01 -0.22502637785E+01 -0.29241197015E+00  0.25280890249E+01  0.00000000000E+00 0. -1.
</event>
<event>
 7    1  0.9175399E-010  0.4778727E+02  0.7816164E-02  0.1312668E+00
        -11   -1    0    0    0    0  0.00000000000E+00  0.00000000000E+00  0.45593999997E+02  0.45594000000E+02  0.51100000000E-03 0. -1.
         11   -1    0    0    0    0 -0.00000000000E+00 -0.00000000000E+00 -0.45593999997E+02  0.45594000000E+02  0.51100000000E-03 0.  1.
    9900012    2    1    2    0    0 -0.12843332994E+02 -0.18643422357E+02  0.37028296440E+02  0.47787272624E+02  0.20000007200E+02 0.  0.
        -12    1    1    2    0    0  0.12843332994E+02  0.18643422357E+02 -0.37028296440E+02  0.43400727376E+02  0.00000000000E+00 0.  1.
         11    1    3    3    0    0 -0.12371277380E+02 -0.69970554938E+01  0.10849162311E+02  0.17880481333E+02  0.51100000000E-03 0. -1.
        -11    1    3    3    0    0 -0.13668396999E+00 -0.17095461983E+00 -0.67073275422E+00  0.70554282535E+00  0.51100000000E-03 0.  1.
         12    1    3    3    0    0 -0.33537164475E+00 -0.11475412243E+02  0.26849866883E+02  0.29201248465E+02  0.00000000000E+00 0. -1.
</event>
<event>
 7    1  0.9175399E-010  0.4778727E+02  0.7816164E-02  0.1312668E+00
        -11   -1    0    0    0    0  0.00000000000E+00  0.00000000000E+00  0.45593999997E+02  0.45594000000E+02  0.51100000000E-03 0. -1.
         11   -1    0    0    0    0 -0.00000000000E+00 -0.00000000000E+00 -0.45593999997E+02  0.45594000000E+02  0.51100000000E-03 0.  1.
    9900012    2    1    2    0    0 -0.30546330824E+02  0.17417072747E+02  0.25439939840E+02  0.47787270871E+02  0.19999999208E+02 0.  0.
        -12    1    1    2    0    0  0.30546330824E+02 -0.17417072747E+02 -0.25439939840E+02  0.43400729129E+02  0.00000000000E+00 0.  1.
         11    1    3    3    0    0 -0.23255940207E+02  0.18440982691E+02  0.14189036580E+02  0.32897376140E+02  0.51100000000E-03 0. -1.
        -11    1    3    3    0    0 -0.42062921312E+01  0.11871165358E+01  0.99680884087E+01  0.10884159405E+02  0.51100000000E-03 0.  1.
         12    1    3    3    0    0 -0.30840984854E+01 -0.22110264800E+01  0.12828148513E+01  0.40057353264E+01  0.00000000000E+00 0. -1.
</event>
<event>
 7    1  0.9175399E-010  0.4778728E+02  0.7816164E-02  0.1312668E+00
        -11   -1    0    0    0    0  0.00000000000E+00  0.00000000000E+00  0.45593999997E+02  0.45594000000E+02  0.51100000000E-03 0. -1.
         11   -1    0    0    0    0 -0.00000000000E+00 -0.00000000000E+00 -0.45593999997E+02  0.45594000000E+02  0.51100000000E-03 0.  1.
    9900012    2    1    2    0    0  0.12707384805E+02  0.11149057757E+02  0.39973031532E+02  0.47787281489E+02  0.20000047620E+02 0.  0.
        -12    1    1    2    0    0 -0.12707384805E+02 -0.11149057757E+02 -0.39973031532E+02  0.43400718511E+02  0.00000000000E+00 0.  1.
         11    1    3    3    0    0  0.10985957909E+02  0.32426857393E+00  0.11719999939E+02  0.16067197022E+02  0.51100000000E-03 0. -1.
        -11    1    3    3    0    0  0.10680202880E+01  0.10539781133E+02  0.28885646663E+02  0.30766999156E+02  0.51100000000E-03 0.  1.
        -12    1    3    3    0    0  0.65340660768E+00  0.28500805052E+00 -0.63261507026E+00  0.95308531147E+00  0.00000000000E+00 0.  1.
</event>
<event>
 7    1  0.9175399E-010  0.4778727E+02  0.7816164E-02  0.1312668E+00
        -11   -1    0    0    0    0  0.00000000000E+00  0.00000000000E+00  0.45593999997E+02  0.45594000000E+02  0.51100000000E-03 0. -1.
         11   -1    0    0    0    0 -0.00000000000E+00 -0.00000000000E+00 -0.45593999997E+02  0.45594000000E+02  0.51100000000E-03 0.  1.
    9900012    2    1    2    0    0 -0.68260100765E+01 -0.19964179035E+02 -0.37927041954E+02  0.47787269943E+02  0.19999994980E+02 0.  0.
         12    1    1    2    0    0  0.68260100765E+01  0.19964179035E+02  0.37927041954E+02  0.43400730057E+02  0.00000000000E+00 0. -1.
         11    1    3    3    0    0 -0.10565613462E+02 -0.14789866856E+02 -0.16055773011E+02  0.24252014281E+02  0.51100000000E-03 0. -1.
        -11    1    3    3    0    0  0.51497068688E+01 -0.46061553080E+01 -0.15256621266E+02  0.16748153339E+02  0.51100000000E-03 0.  1.
         12    1    3    3    0    0 -0.14101034836E+01 -0.56815687082E+00 -0.66146476771E+01  0.67871023240E+01  0.00000000000E+00 0. -1.
</event>
<event>
 7    1  0.9175399E-010  0.4778727E+02  0.7816164E-02  0.1312668E+00
        -11   -1    0    0    0    0  0.00000000000E+00  0.00000000000E+00  0.45593999997E+02  0.45594000000E+02  0.51100000000E-03 0. -1.
         11   -1    0    0    0    0 -0.00000000000E+00 -0.00000000000E+00 -0.45593999997E+02  0.45594000000E+02  0.51100000000E-03 0.  1.
    9900012    2    1    2    0    0  0.18155417129E+02 -0.24057214311E+02  0.31229065427E+02  0.47787271216E+02  0.20000000781E+02 0.  0.
        -12    1    1    2    0    0 -0.18155417129E+02  0.24057214311E+02 -0.31229065427E+02  0.43400728784E+02  0.00000000000E+00 0.  1.
         11    1    3    3    0    0 -0.23207905910E+01  0.16097473032E+00  0.23560002174E+01  0.33109997156E+01  0.51100000000E-03 0.  1.
        -11    1    3    3    0    0  0.19752788410E+02 -0.18372652274E+02  0.19057358761E+02  0.33028925577E+02  0.51100000000E-03 0. -1.
         12    1    3    3    0    0  0.72341931016E+00 -0.58455367677E+01  0.98157064490E+01  0.11447345924E+02  0.00000000000E+00 0. -1.
</event>
<event>
 7    1  0.9175399E-010  0.4778724E+02  0.7816164E-02  0.1312668E+00
        -11   -1    0    0    0    0  0.00000000000E+00  0.00000000000E+00  0.45593999997E+02  0.45594000000E+02  0.51100000000E-03 0. -1.
         11   -1    0    0    0    0 -0.00000000000E+00 -0.00000000000E+00 -0.45593999997E+02  0.45594000000E+02  0.51100000000E-03 0.  1.
    9900012    2    1    2    0    0 -0.23013676969E+02  0.47915545409E+01 -0.36483384999E+02  0.47787243053E+02  0.19999872377E+02 0.  0.
         12    1    1    2    0    0  0.23013676969E+02 -0.47915545409E+01  0.36483384999E+02  0.43400756947E+02  0.00000000000E+00 0. -1.
         11    1    3    3    0    0  0.34412706987E+01  0.16636665525E+00 -0.75511526416E+01  0.82999956845E+01  0.51100000000E-03 0. -1.
        -11    1    3    3    0    0 -0.12774914129E+02  0.19064825956E+01 -0.14428466324E+02  0.19365271690E+02  0.51100000000E-03 0.  1.
         12    1    3    3    0    0 -0.13680033538E+02  0.27187052901E+01 -0.14503766034E+02  0.20121975679E+02  0.00000000000E+00 0. -1.
</event>
<event>
 7    1  0.9175399E-010  0.4778727E+02  0.7816164E-02  0.1312668E+00
        -11   -1    0    0    0    0  0.00000000000E+00  0.00000000000E+00  0.45593999997E+02  0.45594000000E+02  0.51100000000E-03 0. -1.
         11   -1    0    0    0    0 -0.00000000000E+00 -0.00000000000E+00 -0.45593999997E+02  0.45594000000E+02  0.51100000000E-03 0.  1.
    9900012    2    1    2    0    0  0.11533633559E+02  0.74904946693E-01 -0.41840086484E+02  0.47787272462E+02  0.20000006464E+02 0.  0.
         12    1    1    2    0    0 -0.11533633559E+02 -0.74904946693E-01  0.41840086484E+02  0.43400727538E+02  0.00000000000E+00 0. -1.
         11    1    3    3    0    0 -0.26895969615E+01  0.69341177859E+00 -0.23931916002E+01  0.36663494114E+01  0.51100000000E-03 0. -1.
        -11    1    3    3    0    0  0.13029737037E+02  0.47784072818E+01 -0.24118393692E+02  0.27826320956E+02  0.51100000000E-03 0.  1.
        -12    1    3    3    0    0  0.11934934843E+01 -0.53969141137E+01 -0.15328501192E+02  0.16294602095E+02  0.00000000000E+00 0.  1.
</event>
<event>
 7    1  0.9175399E-010  0.4778727E+02  0.7816164E-02  0.1312668E+00
        -11   -1    0    0    0    0  0.00000000000E+00  0.00000000000E+00  0.45593999997E+02  0.45594000000E+02  0.51100000000E-03 0.  1.
         11   -1    0    0    0    0 -0.00000000000E+00 -0.00000000000E+00 -0.45593999997E+02  0.45594000000E+02  0.51100000000E-03 0. -1.
    9900012    2    1    2    0    0 -0.78856655659E+00  0.40771209259E+02  0.14856299449E+02  0.47787274488E+02  0.20000015702E+02 0.  0.
        -12    1    1    2    0    0  0.78856655659E+00 -0.40771209259E+02 -0.14856299449E+02  0.43400725512E+02  0.00000000000E+00 0.  1.
         11    1    3    3    0    0  0.10372249597E+01  0.12794097190E+02  0.24704147510E+01  0.13071637534E+02  0.51100000000E-03 0. -1.
        -11    1    3    3    0    0 -0.68681172723E+00  0.57808459577E+01 -0.40340202262E+01  0.70825990838E+01  0.51100000000E-03 0.  1.
        -12    1    3    3    0    0 -0.11389797891E+01  0.22196266111E+02  0.16419904924E+02  0.27633037870E+02  0.00000000000E+00 0.  1.
</event>
<event>
 7    1  0.9175399E-010  0.4778727E+02  0.7816164E-02  0.1312668E+00
        -11   -1    0    0    0    0  0.00000000000E+00  0.00000000000E+00  0.45593999997E+02  0.45594000000E+02  0.51100000000E-03 0. -1.
         11   -1    0    0    0    0 -0.00000000000E+00 -0.00000000000E+00 -0.45593999997E+02  0.45594000000E+02  0.51100000000E-03 0.  1.
    9900012    2    1    2    0    0 -0.40889328305E+02  0.16426777468E+01 -0.14456406604E+02  0.47787271305E+02  0.20000001186E+02 0.  0.
         12    1    1    2    0    0  0.40889328305E+02 -0.16426777468E+01  0.14456406604E+02  0.43400728695E+02  0.00000000000E+00 0. -1.
         11    1    3    3    0    0 -0.14729988225E+02 -0.31995740448E+01 -0.18537512890E+01  0.15187041229E+02  0.51100000000E-03 0. -1.
        -11    1    3    3    0    0 -0.17384913754E+02  0.41606338054E+01 -0.15156394241E+02  0.23436347551E+02  0.51100000000E-03 0.  1.
        -12    1    3    3    0    0 -0.87744263257E+01  0.68161798617E+00  0.25537389256E+01  0.91638825246E+01  0.00000000000E+00 0.  1.
</event>
<event>
 7    1  0.9175399E-010  0.4778728E+02  0.7816164E-02  0.1312668E+00
        -11   -1    0    0    0    0  0.00000000000E+00  0.00000000000E+00  0.45593999997E+02  0.45594000000E+02  0.51100000000E-03 0. -1.
         11   -1    0    0    0    0 -0.00000000000E+00 -0.00000000000E+00 -0.45593999997E+02  0.45594000000E+02  0.51100000000E-03 0.  1.
    9900012    2    1    2    0    0 -0.30957143209E+02  0.14298374831E+02 -0.26848360476E+02  0.47787277671E+02  0.20000030211E+02 0.  0.
         12    1    1    2    0    0  0.30957143209E+02 -0.14298374831E+02  0.26848360476E+02  0.43400722329E+02  0.00000000000E+00 0. -1.
         11    1    3    3    0    0 -0.28997651709E+01  0.83321806967E+01 -0.75246342133E+01  0.11595429855E+02  0.51100000000E-03 0. -1.
        -11    1    3    3    0    0 -0.11781677494E+02 -0.27691108076E+01 -0.69103002184E+01  0.13936575929E+02  0.51100000000E-03 0.  1.
        -12    1    3    3    0    0 -0.16275700544E+02  0.87353049416E+01 -0.12413426044E+02  0.22255271887E+02  0.00000000000E+00 0.  1.
</event>
<event>
 7    1  0.9175399E-010  0.4778727E+02  0.7816164E-02  0.1312668E+00
        -11   -1    0    0    0    0  0.00000000000E+00  0.00000000000E+00  0.45593999997E+02  0.45594000000E+02  0.51100000000E-03 0. -1.
         11   -1    0    0    0    0 -0.00000000000E+00 -0.00000000000E+00 -0.45593999997E+02  0.45594000000E+02  0.51100000000E-03 0.  1.
    9900012    2    1    2    0    0  0.67090310139E+01 -0.31639649455E+00 -0.42877872624E+02  0.47787272303E+02  0.20000005738E+02 0.  0.
         12    1    1    2    0    0 -0.67090310139E+01  0.31639649455E+00  0.42877872624E+02  0.43400727697E+02  0.00000000000E+00 0. -1.
         11    1    3    3    0    0  0.36099284679E+01 -0.15554458640E+01 -0.67452735535E+01  0.78070295857E+01  0.51100000000E-03 0. -1.
        -11    1    3    3    0    0  0.61798181033E+01  0.31845949246E+01 -0.35630252142E+02  0.36302157850E+02  0.51100000000E-03 0.  1.
        -12    1    3    3    0    0 -0.30807155573E+01 -0.19455455552E+01 -0.50234692820E+00  0.36780848670E+01  0.00000000000E+00 0.  1.
</event>
<event>
 7    1  0.9175399E-010  0.4778727E+02  0.7816164E-02  0.1312668E+00
        -11   -1    0    0    0    0  0.00000000000E+00  0.00000000000E+00  0.45593999997E+02  0.45594000000E+02  0.51100000000E-03 0. -1.
         11   -1    0    0    0    0 -0.00000000000E+00 -0.00000000000E+00 -0.45593999997E+02  0.45594000000E+02  0.51100000000E-03 0.  1.
    9900012    2    1    2    0    0 -0.17713848618E+02  0.25659194732E+02  0.30190203749E+02  0.47787272937E+02  0.20000008631E+02 0.  0.
        -12    1    1    2    0    0  0.17713848618E+02 -0.25659194732E+02 -0.30190203749E+02  0.43400727063E+02  0.00000000000E+00 0.  1.
         11    1    3    3    0    0  0.16341750335E+01  0.67125766542E+01  0.42376836196E+01  0.81047625567E+01  0.51100000000E-03 0. -1.
        -11    1    3    3    0    0 -0.16404601498E+02  0.15175621928E+02  0.26724486174E+02  0.34836885808E+02  0.51100000000E-03 0.  1.
        -12    1    3    3    0    0 -0.29434221528E+01  0.37709961496E+01 -0.77196604470E+00  0.48456245732E+01  0.00000000000E+00 0.  1.
</event>
<event>
 7    1  0.9175399E-010  0.4778727E+02  0.7816164E-02  0.1312668E+00
        -11   -1    0    0    0    0  0.00000000000E+00  0.00000000000E+00  0.45593999997E+02  0.45594000000E+02  0.51100000000E-03 0.  1.
         11   -1    0    0    0    0 -0.00000000000E+00 -0.00000000000E+00 -0.45593999997E+02  0.45594000000E+02  0.51100000000E-03 0. -1.
    9900012    2    1    2    0    0  0.34935728221E+02 -0.23322318967E+02  0.10917299279E+02  0.47787273142E+02  0.20000009561E+02 0.  0.
         12    1    1    2    0    0 -0.34935728221E+02  0.23322318967E+02 -0.10917299279E+02  0.43400726858E+02  0.00000000000E+00 0. -1.
         11    1    3    3    0    0  0.51113144178E+01 -0.65171527862E+01 -0.25699267558E+00  0.82864263113E+01  0.51100000000E-03 0. -1.
        -11    1    3    3    0    0  0.26315964464E+02 -0.10205296864E+02  0.29370046545E+01  0.28377879878E+02  0.51100000000E-03 0.  1.
        -12    1    3    3    0    0  0.35084493387E+01 -0.65998693161E+01  0.82372873001E+01  0.11122966952E+02  0.00000000000E+00 0.  1.
</event>
<event>
 7    1  0.9175399E-010  0.4778728E+02  0.7816164E-02  0.1312668E+00
        -11   -1    0    0    0    0  0.00000000000E+00  0.00000000000E+00  0.45593999997E+02  0.45594000000E+02  0.51100000000E-03 0. -1.
         11   -1    0    0    0    0 -0.00000000000E+00 -0.00000000000E+00 -0.45593999997E+02  0.45594000000E+02  0.51100000000E-03 0.  1.
    9900012    2    1    2    0    0 -0.21725148527E+02 -0.53484508348E+01  0.37189177093E+02  0.47787275378E+02  0.20000019760E+02 0.  0.
        -12    1    1    2    0    0  0.21725148527E+02  0.53484508348E+01 -0.37189177093E+02  0.43400724622E+02  0.00000000000E+00 0.  1.
         11    1    3    3    0    0  0.10768181579E+01 -0.55285577890E+01  0.74506718757E+01  0.93400749586E+01  0.51100000000E-03 0. -1.
        -11    1    3    3    0    0 -0.80301675562E+01  0.41505827124E+01  0.12018413779E+02  0.15038390800E+02  0.51100000000E-03 0.  1.
         12    1    3    3    0    0 -0.14771799128E+02 -0.39704757583E+01  0.17720091438E+02  0.23408809620E+02  0.00000000000E+00 0. -1.
</event>
<event>
 7    1  0.9175399E-010  0.4778727E+02  0.7816164E-02  0.1312668E+00
        -11   -1    0    0    0    0  0.00000000000E+00  0.00000000000E+00  0.45593999997E+02  0.45594000000E+02  0.51100000000E-03 0. -1.
         11   -1    0    0    0    0 -0.00000000000E+00 -0.00000000000E+00 -0.45593999997E+02  0.45594000000E+02  0.51100000000E-03 0.  1.
    9900012    2    1    2    0    0 -0.28436055350E+02  0.24084535913E+01  0.32698823944E+02  0.47787274431E+02  0.20000015441E+02 0.  0.
        -12    1    1    2    0    0  0.28436055350E+02 -0.24084535913E+01 -0.32698823944E+02  0.43400725569E+02  0.00000000000E+00 0.  1.
         11    1    3    3    0    0 -0.16645396259E+02  0.93097814410E+01  0.19175792669E+02  0.27045374315E+02  0.51100000000E-03 0. -1.
        -11    1    3    3    0    0 -0.26472096056E+00 -0.26917396421E+01  0.33033743938E+00  0.27248234021E+01  0.51100000000E-03 0.  1.
         12    1    3    3    0    0 -0.11525938131E+02 -0.42095882076E+01  0.13192693835E+02  0.18017076714E+02  0.00000000000E+00 0. -1.
</event>
<event>
 7    1  0.9175399E-010  0.4778727E+02  0.7816164E-02  0.1312668E+00
        -11   -1    0    0    0    0  0.00000000000E+00  0.00000000000E+00  0.45593999997E+02  0.45594000000E+02  0.51100000000E-03 0. -1.
         11   -1    0    0    0    0 -0.00000000000E+00 -0.00000000000E+00 -0.45593999997E+02  0.45594000000E+02  0.51100000000E-03 0.  1.
    9900012    2    1    2    0    0 -0.16762128047E+02 -0.38748125928E+02  0.10061650083E+02  0.47787274177E+02  0.20000014282E+02 0.  0.
        -12    1    1    2    0    0  0.16762128047E+02  0.38748125928E+02 -0.10061650083E+02  0.43400725823E+02  0.00000000000E+00 0.  1.
         11    1    3    3    0    0 -0.15781895729E+02 -0.22485566156E+02 -0.17071791018E+00  0.27471768473E+02  0.51100000000E-03 0. -1.
        -11    1    3    3    0    0  0.52186870645E+00 -0.10172206945E+02  0.96241687543E+01  0.14013235370E+02  0.51100000000E-03 0.  1.
        -12    1    3    3    0    0 -0.15021010252E+01 -0.60903528267E+01  0.60819923913E+00  0.63022703336E+01  0.00000000000E+00 0.  1.
</event>
<event>
 7    1  0.9175399E-010  0.4778727E+02  0.7816164E-02  0.1312668E+00
        -11   -1    0    0    0    0  0.00000000000E+00  0.00000000000E+00  0.45593999997E+02  0.45594000000E+02  0.51100000000E-03 0. -1.
         11   -1    0    0    0    0 -0.00000000000E+00 -0.00000000000E+00 -0.45593999997E+02  0.45594000000E+02  0.51100000000E-03 0.  1.
    9900012    2    1    2    0    0  0.17578820251E+02 -0.33451095256E+02  0.21345556151E+02  0.47787268870E+02  0.19999990086E+02 0.  0.
        -12    1    1    2    0    0 -0.17578820251E+02  0.33451095256E+02 -0.21345556151E+02  0.43400731130E+02  0.00000000000E+00 0.  1.
         11    1    3    3    0    0  0.57234587096E+01 -0.25056146342E+02  0.11245760678E+02  0.28054154462E+02  0.51100000000E-03 0. -1.
        -11    1    3    3    0    0  0.13246611826E+02 -0.79906322877E+01  0.95678245160E+01  0.18189727746E+02  0.51100000000E-03 0.  1.
        -12    1    3    3    0    0 -0.13912502850E+01 -0.40431662649E+00  0.53197095632E+00  0.15433866620E+01  0.00000000000E+00 0.  1.
</event>
<event>
 7    1  0.9175399E-010  0.4778727E+02  0.7816164E-02  0.1312668E+00
        -11   -1    0    0    0    0  0.00000000000E+00  0.00000000000E+00  0.45593999997E+02  0.45594000000E+02  0.51100000000E-03 0. -1.
         11   -1    0    0    0    0 -0.00000000000E+00 -0.00000000000E+00 -0.45593999997E+02  0.45594000000E+02  0.51100000000E-03 0.  1.
    9900012    2    1    2    0    0  0.31861670607E+02  0.20348075562E+02 -0.21316964555E+02  0.47787271771E+02  0.20000003313E+02 0.  0.
         12    1    1    2    0    0 -0.31861670607E+02 -0.20348075562E+02  0.21316964555E+02  0.43400728229E+02  0.00000000000E+00 0. -1.
         11    1    3    3    0    0  0.50540283100E+01 -0.26515834529E+01 -0.26940108101E+01  0.63112432589E+01  0.51100000000E-03 0. -1.
        -11    1    3    3    0    0  0.21725797440E+02  0.20307923689E+02 -0.19635717178E+02  0.35636826855E+02  0.51100000000E-03 0.  1.
        -12    1    3    3    0    0  0.50818448576E+01  0.26917353257E+01  0.10127634330E+01  0.58392016570E+01  0.00000000000E+00 0.  1.
</event>
<event>
 7    1  0.9175399E-010  0.4778725E+02  0.7816164E-02  0.1312668E+00
        -11   -1    0    0    0    0  0.00000000000E+00  0.00000000000E+00  0.45593999997E+02  0.45594000000E+02  0.51100000000E-03 0. -1.
         11   -1    0    0    0    0 -0.00000000000E+00 -0.00000000000E+00 -0.45593999997E+02  0.45594000000E+02  0.51100000000E-03 0.  1.
    9900012    2    1    2    0    0  0.19107556661E+01  0.26980943326E+01  0.43274638428E+02  0.47787250798E+02  0.19999907687E+02 0.  0.
        -12    1    1    2    0    0 -0.19107556661E+01 -0.26980943326E+01 -0.43274638428E+02  0.43400749202E+02  0.00000000000E+00 0.  1.
         11    1    3    3    0    0  0.39794499554E+00 -0.77672558225E+01  0.13545920475E+02  0.15619877881E+02  0.51100000000E-03 0. -1.
        -11    1    3    3    0    0  0.32681912154E+01  0.76963304186E+01  0.25375864696E+02  0.26717954357E+02  0.51100000000E-03 0.  1.
        -12    1    3    3    0    0 -0.17553805449E+01  0.27690197365E+01  0.43528532576E+01  0.54494185598E+01  0.00000000000E+00 0.  1.
</event>
<event>
 7    1  0.9175399E-010  0.4778732E+02  0.7816164E-02  0.1312668E+00
        -11   -1    0    0    0    0  0.00000000000E+00  0.00000000000E+00  0.45593999997E+02  0.45594000000E+02  0.51100000000E-03 0.  1.
         11   -1    0    0    0    0 -0.00000000000E+00 -0.00000000000E+00 -0.45593999997E+02  0.45594000000E+02  0.51100000000E-03 0. -1.
    9900012    2    1    2    0    0  0.17952618177E+02 -0.38251718955E+02  0.99059663513E+01  0.47787324063E+02  0.20000241732E+02 0.  0.
        -12    1    1    2    0    0 -0.17952618177E+02  0.38251718955E+02 -0.99059663513E+01  0.43400675937E+02  0.00000000000E+00 0.  1.
         11    1    3    3    0    0  0.13034039848E+02 -0.34481681121E+02  0.72171933996E+01  0.37562752941E+02  0.51100000000E-03 0. -1.
        -11    1    3    3    0    0  0.30486573735E+01 -0.14675846649E+01  0.52899365677E+01  0.62794542502E+01  0.51100000000E-03 0.  1.
        -12    1    3    3    0    0  0.18699209560E+01 -0.23024531693E+01 -0.26011636160E+01  0.39451168722E+01  0.00000000000E+00 0.  1.
</event>
<event>
 7    1  0.9175399E-010  0.4778727E+02  0.7816164E-02  0.1312668E+00
        -11   -1    0    0    0    0  0.00000000000E+00  0.00000000000E+00  0.45593999997E+02  0.45594000000E+02  0.51100000000E-03 0. -1.
         11   -1    0    0    0    0 -0.00000000000E+00 -0.00000000000E+00 -0.45593999997E+02  0.45594000000E+02  0.51100000000E-03 0.  1.
    9900012    2    1    2    0    0 -0.98228209784E+01  0.39200995870E+02 -0.15824576798E+02  0.47787272817E+02  0.20000008083E+02 0.  0.
         12    1    1    2    0    0  0.98228209784E+01 -0.39200995870E+02  0.15824576798E+02  0.43400727183E+02  0.00000000000E+00 0. -1.
         11    1    3    3    0    0 -0.18254595286E+00  0.43906413141E+00 -0.32931514715E+01  0.33273032943E+01  0.51100000000E-03 0. -1.
        -11    1    3    3    0    0 -0.75774235569E+01  0.37753338405E+02 -0.14780729798E+02  0.41245628642E+02  0.51100000000E-03 0.  1.
        -12    1    3    3    0    0 -0.20628514686E+01  0.10085933338E+01  0.22493044713E+01  0.32143408810E+01  0.00000000000E+00 0.  1.
</event>
<event>
 7    1  0.9175399E-010  0.4778727E+02  0.7816164E-02  0.1312668E+00
        -11   -1    0    0    0    0  0.00000000000E+00  0.00000000000E+00  0.45593999997E+02  0.45594000000E+02  0.51100000000E-03 0. -1.
         11   -1    0    0    0    0 -0.00000000000E+00 -0.00000000000E+00 -0.45593999997E+02  0.45594000000E+02  0.51100000000E-03 0.  1.
    9900012    2    1    2    0    0 -0.16321636660E+02  0.25288517832E+02  0.31268482299E+02  0.47787274860E+02  0.20000017398E+02 0.  0.
        -12    1    1    2    0    0  0.16321636660E+02 -0.25288517832E+02 -0.31268482299E+02  0.43400725140E+02  0.00000000000E+00 0.  1.
         11    1    3    3    0    0 -0.13156336429E+02  0.25060294689E+02  0.16845514677E+02  0.32937500256E+02  0.51100000000E-03 0. -1.
        -11    1    3    3    0    0 -0.16533144151E+01 -0.52956376185E+00  0.91159294452E+01  0.92797659585E+01  0.51100000000E-03 0.  1.
         12    1    3    3    0    0 -0.15119858156E+01  0.75778690402E+00  0.53070381771E+01  0.55700086455E+01  0.00000000000E+00 0. -1.
</event>
<event>
 7    1  0.9175399E-010  0.4778727E+02  0.7816164E-02  0.1312668E+00
        -11   -1    0    0    0    0  0.00000000000E+00  0.00000000000E+00  0.45593999997E+02  0.45594000000E+02  0.51100000000E-03 0. -1.
         11   -1    0    0    0    0 -0.00000000000E+00 -0.00000000000E+00 -0.45593999997E+02  0.45594000000E+02  0.51100000000E-03 0.  1.
    9900012    2    1    2    0    0  0.30330270522E+01  0.16863604704E+01 -0.43261762698E+02  0.47787272166E+02  0.20000005115E+02 0.  0.
         12    1    1    2    0    0 -0.30330270522E+01 -0.16863604704E+01  0.43261762698E+02  0.43400727834E+02  0.00000000000E+00 0. -1.
         11    1    3    3    0    0  0.10613345354E+02  0.73247874910E+00 -0.19795833635E+02  0.22473421063E+02  0.51100000000E-03 0. -1.
        -11    1    3    3    0    0 -0.36080556730E+01 -0.23261224087E+01 -0.11968807473E+02  0.12715394756E+02  0.51100000000E-03 0.  1.
         12    1    3    3    0    0 -0.39722626288E+01  0.32800041299E+01 -0.11497121590E+02  0.12598456347E+02  0.00000000000E+00 0. -1.
</event>
<event>
 7    1  0.9175399E-010  0.4778727E+02  0.7816164E-02  0.1312668E+00
        -11   -1    0    0    0    0  0.00000000000E+00  0.00000000000E+00  0.45593999997E+02  0.45594000000E+02  0.51100000000E-03 0. -1.
         11   -1    0    0    0    0 -0.00000000000E+00 -0.00000000000E+00 -0.45593999997E+02  0.45594000000E+02  0.51100000000E-03 0.  1.
    9900012    2    1    2    0    0  0.16657922358E+02  0.53399003520E+01  0.39719297807E+02  0.47787268079E+02  0.19999986477E+02 0.  0.
        -12    1    1    2    0    0 -0.16657922358E+02 -0.53399003520E+01 -0.39719297807E+02  0.43400731921E+02  0.00000000000E+00 0.  1.
         11    1    3    3    0    0  0.81985509381E+01 -0.18793688616E+01  0.25695470784E+02  0.27037113084E+02  0.51100000000E-03 0. -1.
        -11    1    3    3    0    0  0.15344394516E+01  0.41762416509E+01 -0.39604704000E+00  0.44668056009E+01  0.51100000000E-03 0.  1.
        -12    1    3    3    0    0  0.69249319680E+01  0.30430275627E+01  0.14419874063E+02  0.16283349394E+02  0.00000000000E+00 0.  1.
</event>
<event>
 7    1  0.9175399E-010  0.4778728E+02  0.7816164E-02  0.1312668E+00
        -11   -1    0    0    0    0  0.00000000000E+00  0.00000000000E+00  0.45593999997E+02  0.45594000000E+02  0.51100000000E-03 0. -1.
         11   -1    0    0    0    0 -0.00000000000E+00 -0.00000000000E+00 -0.45593999997E+02  0.45594000000E+02  0.51100000000E-03 0.  1.
    9900012    2    1    2    0    0  0.53647220438E+01 -0.28113389388E+02  0.32626359509E+02  0.47787282952E+02  0.20000054290E+02 0.  0.
        -12    1    1    2    0    0 -0.53647220438E+01  0.28113389388E+02 -0.32626359509E+02  0.43400717048E+02  0.00000000000E+00 0.  1.
         11    1    3    3    0    0  0.99188868025E+00 -0.19786657357E+01 -0.17382114174E+01  0.28143099403E+01  0.51100000000E-03 0. -1.
        -11    1    3    3    0    0 -0.99944449313E+00 -0.18978956392E+01 -0.47169219391E+00  0.21962219694E+01  0.51100000000E-03 0.  1.
         12    1    3    3    0    0  0.53722778567E+01 -0.24236828013E+02  0.34836263121E+02  0.42776751042E+02  0.00000000000E+00 0. -1.
</event>
<event>
 7    1  0.9175399E-010  0.4778727E+02  0.7816164E-02  0.1312668E+00
        -11   -1    0    0    0    0  0.00000000000E+00  0.00000000000E+00  0.45593999997E+02  0.45594000000E+02  0.51100000000E-03 0. -1.
         11   -1    0    0    0    0 -0.00000000000E+00 -0.00000000000E+00 -0.45593999997E+02  0.45594000000E+02  0.51100000000E-03 0.  1.
    9900012    2    1    2    0    0  0.11185185132E+02  0.12389801347E+02 -0.40062551804E+02  0.47787267277E+02  0.19999982821E+02 0.  0.
         12    1    1    2    0    0 -0.11185185132E+02 -0.12389801347E+02  0.40062551804E+02  0.43400732723E+02  0.00000000000E+00 0. -1.
         11    1    3    3    0    0 -0.14360548517E+01 -0.49936276857E+00  0.15615923667E+01  0.21794925310E+01  0.51100000000E-03 0. -1.
        -11    1    3    3    0    0  0.50487731743E+01  0.30132001619E+01 -0.96886862416E+01  0.11333142862E+02  0.51100000000E-03 0.  1.
         12    1    3    3    0    0  0.75724668089E+01  0.98759639540E+01 -0.31935457929E+02  0.34274631884E+02  0.00000000000E+00 0. -1.
</event>
<event>
 7    1  0.9676395E-010  0.4778726E+02  0.7816164E-02  0.1312668E+00
        -11   -1    0    0    0    0  0.00000000000E+00  0.00000000000E+00  0.45593999997E+02  0.45594000000E+02  0.51100000000E-03 0. -1.
         11   -1    0    0    0    0 -0.00000000000E+00 -0.00000000000E+00 -0.45593999997E+02  0.45594000000E+02  0.51100000000E-03 0.  1.
    9900012    2    1    2    0    0  0.23975579913E+02  0.10062250673E+02 -0.34749773603E+02  0.47787261685E+02  0.19999957328E+02 0.  0.
         12    1    1    2    0    0 -0.23975579913E+02 -0.10062250673E+02  0.34749773603E+02  0.43400738315E+02  0.00000000000E+00 0. -1.
         11    1    3    3    0    0 -0.20387041788E+01  0.10398225663E+01 -0.75341321415E+01  0.78740518848E+01  0.51100000000E-03 0. -1.
        -11    1    3    3    0    0  0.48381468861E+01 -0.10277786453E+01 -0.88374670409E+01  0.10127429002E+02  0.51100000000E-03 0.  1.
         12    1    3    3    0    0  0.21176137206E+02  0.10050206752E+02 -0.18378174421E+02  0.29785780798E+02  0.00000000000E+00 0. -1.
</event>
<event>
 7    1  0.9175399E-010  0.4778727E+02  0.7816164E-02  0.1312668E+00
        -11   -1    0    0    0    0  0.00000000000E+00  0.00000000000E+00  0.45593999997E+02  0.45594000000E+02  0.51100000000E-03 0. -1.
         11   -1    0    0    0    0 -0.00000000000E+00 -0.00000000000E+00 -0.45593999997E+02  0.45594000000E+02  0.51100000000E-03 0.  1.
    9900012    2    1    2    0    0 -0.16265135484E+02  0.21984366707E+01 -0.40177549473E+02  0.47787271461E+02  0.20000001898E+02 0.  0.
         12    1    1    2    0    0  0.16265135484E+02 -0.21984366707E+01  0.40177549473E+02  0.43400728539E+02  0.00000000000E+00 0. -1.
         11    1    3    3    0    0 -0.27153365477E+00 -0.15633070802E+01  0.15603633320E+01  0.22253973896E+01  0.51100000000E-03 0. -1.
        -11    1    3    3    0    0 -0.35052892498E+01  0.17288192896E+01 -0.33671718430E+01  0.51588482573E+01  0.51100000000E-03 0.  1.
         12    1    3    3    0    0 -0.12488312579E+02  0.20329244613E+01 -0.38370740962E+02  0.40403025814E+02  0.00000000000E+00 0. -1.
</event>
<event>
 7    1  0.9175399E-010  0.4778727E+02  0.7816164E-02  0.1312668E+00
        -11   -1    0    0    0    0  0.00000000000E+00  0.00000000000E+00  0.45593999997E+02  0.45594000000E+02  0.51100000000E-03 0. -1.
         11   -1    0    0    0    0 -0.00000000000E+00 -0.00000000000E+00 -0.45593999997E+02  0.45594000000E+02  0.51100000000E-03 0.  1.
    9900012    2    1    2    0    0  0.29114079524E+02 -0.17620008482E+01 -0.32138589346E+02  0.47787271911E+02  0.20000003949E+02 0.  0.
         12    1    1    2    0    0 -0.29114079524E+02  0.17620008482E+01  0.32138589346E+02  0.43400728089E+02  0.00000000000E+00 0. -1.
         11    1    3    3    0    0  0.48075497280E+01 -0.30271130613E+01 -0.12783978001E+01  0.58232507304E+01  0.51100000000E-03 0. -1.
        -11    1    3    3    0    0  0.22780666674E+02 -0.78806426052E+00 -0.31896359911E+02  0.39204050750E+02  0.51100000000E-03 0.  1.
        -12    1    3    3    0    0  0.15258631217E+01  0.20531764736E+01  0.10361683641E+01  0.27599704304E+01  0.00000000000E+00 0.  1.
</event>
<event>
 7    1  0.9175399E-010  0.4778727E+02  0.7816164E-02  0.1312668E+00
        -11   -1    0    0    0    0  0.00000000000E+00  0.00000000000E+00  0.45593999997E+02  0.45594000000E+02  0.51100000000E-03 0. -1.
         11   -1    0    0    0    0 -0.00000000000E+00 -0.00000000000E+00 -0.45593999997E+02  0.45594000000E+02  0.51100000000E-03 0.  1.
    9900012    2    1    2    0    0 -0.14073463067E+02  0.34923252611E+02 -0.21585349686E+02  0.47787271242E+02  0.20000000901E+02 0.  0.
         12    1    1    2    0    0  0.14073463067E+02 -0.34923252611E+02  0.21585349686E+02  0.43400728758E+02  0.00000000000E+00 0. -1.
         11    1    3    3    0    0  0.10826226784E+01  0.51846518063E+01  0.11205690016E+01  0.54137197346E+01  0.51100000000E-03 0. -1.
        -11    1    3    3    0    0 -0.16815707249E+02  0.25471839311E+02 -0.22253639708E+02  0.37773100067E+02  0.51100000000E-03 0.  1.
        -12    1    3    3    0    0  0.16596215030E+01  0.42667614941E+01 -0.45227897977E+00  0.46004514405E+01  0.00000000000E+00 0.  1.
</event>
<event>
 7    1  0.9175399E-010  0.4778725E+02  0.7816164E-02  0.1312668E+00
        -11   -1    0    0    0    0  0.00000000000E+00  0.00000000000E+00  0.45593999997E+02  0.45594000000E+02  0.51100000000E-03 0. -1.
         11   -1    0    0    0    0 -0.00000000000E+00 -0.00000000000E+00 -0.45593999997E+02  0.45594000000E+02  0.51100000000E-03 0.  1.
    9900012    2    1    2    0    0  0.13235119191E+02 -0.18056912818E+02  0.37180700400E+02  0.47787251588E+02  0.19999911289E+02 0.  0.
        -12    1    1    2    0    0 -0.13235119191E+02  0.18056912818E+02 -0.37180700400E+02  0.43400748412E+02  0.00000000000E+00 0.  1.
         11    1    3    3    0    0  0.28716180045E+01 -0.14066429003E+02  0.26092547274E+02  0.29781397522E+02  0.51100000000E-03 0. -1.
        -11    1    3    3    0    0  0.58960883225E+01  0.23324338872E+01  0.39168371271E+01  0.74529000185E+01  0.51100000000E-03 0.  1.
         12    1    3    3    0    0  0.44674128640E+01 -0.63229177021E+01  0.71713159985E+01  0.10552954047E+02  0.00000000000E+00 0. -1.
</event>
<event>
 7    1  0.9175399E-010  0.4778727E+02  0.7816164E-02  0.1312668E+00
        -11   -1    0    0    0    0  0.00000000000E+00  0.00000000000E+00  0.45593999997E+02  0.45594000000E+02  0.51100000000E-03 0.  1.
         11   -1    0    0    0    0 -0.00000000000E+00 -0.00000000000E+00 -0.45593999997E+02  0.45594000000E+02  0.51100000000E-03 0. -1.
    9900012    2    1    2    0    0 -0.29099341729E+02  0.27895474941E+02 -0.16083977698E+02  0.47787267865E+02  0.19999985505E+02 0.  0.
         12    1    1    2    0    0  0.29099341729E+02 -0.27895474941E+02  0.16083977698E+02  0.43400732135E+02  0.00000000000E+00 0. -1.
         11    1    3    3    0    0 -0.46053426966E+01  0.11720310088E+02  0.63841489047E+00  0.12608823250E+02  0.51100000000E-03 0. -1.
        -11    1    3    3    0    0 -0.80569085017E+01  0.18456808361E+01 -0.85472150609E+01  0.11890130273E+02  0.51100000000E-03 0.  1.
        -12    1    3    3    0    0 -0.16437090531E+02  0.14329484017E+02 -0.81751775280E+01  0.23288314342E+02  0.00000000000E+00 0.  1.
</event>
<event>
 7    1  0.9175399E-010  0.4778727E+02  0.7816164E-02  0.1312668E+00
        -11   -1    0    0    0    0  0.00000000000E+00  0.00000000000E+00  0.45593999997E+02  0.45594000000E+02  0.51100000000E-03 0. -1.
         11   -1    0    0    0    0 -0.00000000000E+00 -0.00000000000E+00 -0.45593999997E+02  0.45594000000E+02  0.51100000000E-03 0.  1.
    9900012    2    1    2    0    0  0.34077390382E+02  0.24802563594E+02 -0.10353138655E+02  0.47787272171E+02  0.20000005136E+02 0.  0.
         12    1    1    2    0    0 -0.34077390382E+02 -0.24802563594E+02  0.10353138655E+02  0.43400727829E+02  0.00000000000E+00 0. -1.
         11    1    3    3    0    0  0.41265973570E+01  0.11066612983E+02 -0.14463347964E+01  0.11899185403E+02  0.51100000000E-03 0. -1.
        -11    1    3    3    0    0  0.28781428175E+02  0.15239761139E+02 -0.72522047433E+01  0.33364882755E+02  0.51100000000E-03 0.  1.
         12    1    3    3    0    0  0.11693648499E+01 -0.15038105274E+01 -0.16545991157E+01  0.25232040124E+01  0.00000000000E+00 0. -1.
</event>
<event>
 7    1  0.9175399E-010  0.4778728E+02  0.7816164E-02  0.1312668E+00
        -11   -1    0    0    0    0  0.00000000000E+00  0.00000000000E+00  0.45593999997E+02  0.45594000000E+02  0.51100000000E-03 0. -1.
         11   -1    0    0    0    0 -0.00000000000E+00 -0.00000000000E+00 -0.45593999997E+02  0.45594000000E+02  0.51100000000E-03 0.  1.
    9900012    2    1    2    0    0  0.11185978358E+02  0.16387183045E+02  0.38599960070E+02  0.47787276534E+02  0.20000025028E+02 0.  0.
        -12    1    1    2    0    0 -0.11185978358E+02 -0.16387183045E+02 -0.38599960070E+02  0.43400723466E+02  0.00000000000E+00 0.  1.
         11    1    3    3    0    0  0.10897831385E+02  0.17199921101E+02  0.31032694130E+02  0.37116413081E+02  0.51100000000E-03 0. -1.
        -11    1    3    3    0    0  0.21727603985E+01 -0.12825539297E+01 -0.32427660223E+00  0.25438136543E+01  0.51100000000E-03 0.  1.
         12    1    3    3    0    0 -0.18846134261E+01  0.46981587282E+00  0.78915425424E+01  0.81270497980E+01  0.00000000000E+00 0. -1.
</event>
<event>
 7    1  0.9175399E-010  0.4778727E+02  0.7816164E-02  0.1312668E+00
        -11   -1    0    0    0    0  0.00000000000E+00  0.00000000000E+00  0.45593999997E+02  0.45594000000E+02  0.51100000000E-03 0. -1.
         11   -1    0    0    0    0 -0.00000000000E+00 -0.00000000000E+00 -0.45593999997E+02  0.45594000000E+02  0.51100000000E-03 0.  1.
    9900012    2    1    2    0    0 -0.25491998369E+01  0.33757607967E+02  0.27157851552E+02  0.47787269403E+02  0.19999992515E+02 0.  0.
        -12    1    1    2    0    0  0.25491998369E+01 -0.33757607967E+02 -0.27157851552E+02  0.43400730597E+02  0.00000000000E+00 0.  1.
         11    1    3    3    0    0 -0.51929206368E+01  0.11822596602E+02  0.99180667938E+01  0.16282145569E+02  0.51100000000E-03 0. -1.
        -11    1    3    3    0    0 -0.36298308704E+00  0.10695048750E+02  0.16728837526E+02  0.19858746933E+02  0.51100000000E-03 0.  1.
        -12    1    3    3    0    0  0.30067038870E+01  0.11239962615E+02  0.51094723172E+00  0.11646376901E+02  0.00000000000E+00 0.  1.
</event>
<event>
 7    1  0.9175399E-010  0.4778727E+02  0.7816164E-02  0.1312668E+00
        -11   -1    0    0    0    0  0.00000000000E+00  0.00000000000E+00  0.45593999997E+02  0.45594000000E+02  0.51100000000E-03 0.  1.
         11   -1    0    0    0    0 -0.00000000000E+00 -0.00000000000E+00 -0.45593999997E+02  0.45594000000E+02  0.51100000000E-03 0. -1.
    9900012    2    1    2    0    0 -0.42346942602E+02  0.28590513020E+01  0.90656351796E+01  0.47787268863E+02  0.19999990052E+02 0.  0.
        -12    1    1    2    0    0  0.42346942602E+02 -0.28590513020E+01 -0.90656351796E+01  0.43400731137E+02  0.00000000000E+00 0.  1.
         11    1    3    3    0    0 -0.24014250756E+01 -0.12900333430E+01  0.67911427665E+00  0.28093103926E+01  0.51100000000E-03 0. -1.
        -11    1    3    3    0    0  0.17839060313E+01  0.35764837511E+00  0.18050915799E+01  0.25629258596E+01  0.51100000000E-03 0.  1.
        -12    1    3    3    0    0 -0.41729423557E+02  0.37914362699E+01  0.65814293230E+01  0.42415032610E+02  0.00000000000E+00 0.  1.
</event>
<event>
 7    1  0.9175399E-010  0.4778727E+02  0.7816164E-02  0.1312668E+00
        -11   -1    0    0    0    0  0.00000000000E+00  0.00000000000E+00  0.45593999997E+02  0.45594000000E+02  0.51100000000E-03 0. -1.
         11   -1    0    0    0    0 -0.00000000000E+00 -0.00000000000E+00 -0.45593999997E+02  0.45594000000E+02  0.51100000000E-03 0.  1.
    9900012    2    1    2    0    0  0.25145629886E+02 -0.90363958069E+01  0.34200352246E+02  0.47787271374E+02  0.20000001502E+02 0.  0.
        -12    1    1    2    0    0 -0.25145629886E+02  0.90363958069E+01 -0.34200352246E+02  0.43400728626E+02  0.00000000000E+00 0.  1.
         11    1    3    3    0    0  0.66729612243E+01 -0.30768430611E+01  0.83535836297E+01  0.11125544231E+02  0.51100000000E-03 0. -1.
        -11    1    3    3    0    0  0.20680053075E+02 -0.54111708704E+01  0.16393473440E+02  0.26938658783E+02  0.51100000000E-03 0.  1.
        -12    1    3    3    0    0 -0.22073844131E+01 -0.54838187545E+00  0.94532951761E+01  0.97230683590E+01  0.00000000000E+00 0.  1.
</event>
<event>
 7    1  0.9175399E-010  0.4778727E+02  0.7816164E-02  0.1312668E+00
        -11   -1    0    0    0    0  0.00000000000E+00  0.00000000000E+00  0.45593999997E+02  0.45594000000E+02  0.51100000000E-03 0. -1.
         11   -1    0    0    0    0 -0.00000000000E+00 -0.00000000000E+00 -0.45593999997E+02  0.45594000000E+02  0.51100000000E-03 0.  1.
    9900012    2    1    2    0    0 -0.93639200354E+01  0.22908085283E+02 -0.35653332765E+02  0.47787268358E+02  0.19999987752E+02 0.  0.
         12    1    1    2    0    0  0.93639200354E+01 -0.22908085283E+02  0.35653332765E+02  0.43400731642E+02  0.00000000000E+00 0. -1.
         11    1    3    3    0    0 -0.67954082719E+01  0.29740475987E+01 -0.14155150969E+01  0.75515704295E+01  0.51100000000E-03 0. -1.
        -11    1    3    3    0    0 -0.18069954441E+01  0.15552483769E+02 -0.20495372197E+02  0.25791573540E+02  0.51100000000E-03 0.  1.
        -12    1    3    3    0    0 -0.76151631937E+00  0.43815539157E+01 -0.13742445472E+02  0.14444124389E+02  0.00000000000E+00 0.  1.
</event>
<event>
 7    1  0.9175399E-010  0.4778726E+02  0.7816164E-02  0.1312668E+00
        -11   -1    0    0    0    0  0.00000000000E+00  0.00000000000E+00  0.45593999997E+02  0.45594000000E+02  0.51100000000E-03 0. -1.
         11   -1    0    0    0    0 -0.00000000000E+00 -0.00000000000E+00 -0.45593999997E+02  0.45594000000E+02  0.51100000000E-03 0.  1.
    9900012    2    1    2    0    0 -0.12483485826E+02  0.12226421260E+02  0.39727839278E+02  0.47787262577E+02  0.19999961393E+02 0.  0.
        -12    1    1    2    0    0  0.12483485826E+02 -0.12226421260E+02 -0.39727839278E+02  0.43400737423E+02  0.00000000000E+00 0.  1.
         11    1    3    3    0    0  0.14883482418E+01  0.49721854487E+01  0.84809240773E+01  0.99430318360E+01  0.51100000000E-03 0. -1.
        -11    1    3    3    0    0 -0.74284346017E+01  0.12367197826E+01  0.27896518257E+01  0.80307704501E+01  0.51100000000E-03 0.  1.
        -12    1    3    3    0    0 -0.65433994659E+01  0.60175160290E+01  0.28457263375E+02  0.29813460291E+02  0.00000000000E+00 0.  1.
</event>
<event>
 7    1  0.9175399E-010  0.4778727E+02  0.7816164E-02  0.1312668E+00
        -11   -1    0    0    0    0  0.00000000000E+00  0.00000000000E+00  0.45593999997E+02  0.45594000000E+02  0.51100000000E-03 0. -1.
         11   -1    0    0    0    0 -0.00000000000E+00 -0.00000000000E+00 -0.45593999997E+02  0.45594000000E+02  0.51100000000E-03 0.  1.
    9900012    2    1    2    0    0  0.79170788104E+01 -0.33879201418E+02  0.25945004339E+02  0.47787266414E+02  0.19999978889E+02 0.  0.
        -12    1    1    2    0    0 -0.79170788104E+01  0.33879201418E+02 -0.25945004339E+02  0.43400733586E+02  0.00000000000E+00 0.  1.
         11    1    3    3    0    0  0.73987509626E+01 -0.24001467130E+02  0.21713735791E+02  0.33200877435E+02  0.51100000000E-03 0. -1.
        -11    1    3    3    0    0 -0.34454220843E+00  0.18970640843E+01 -0.27831930112E+00  0.19480819716E+01  0.51100000000E-03 0.  1.
         12    1    3    3    0    0  0.86287005619E+00 -0.11774798372E+02  0.45095878493E+01  0.12638307007E+02  0.00000000000E+00 0. -1.
</event>
<event>
 7    1  0.9175399E-010  0.4778727E+02  0.7816164E-02  0.1312668E+00
        -11   -1    0    0    0    0  0.00000000000E+00  0.00000000000E+00  0.45593999997E+02  0.45594000000E+02  0.51100000000E-03 0. -1.
         11   -1    0    0    0    0 -0.00000000000E+00 -0.00000000000E+00 -0.45593999997E+02  0.45594000000E+02  0.51100000000E-03 0.  1.
    9900012    2    1    2    0    0  0.15908331330E+02  0.14742390416E+02  0.37592694671E+02  0.47787265289E+02  0.19999973757E+02 0.  0.
        -12    1    1    2    0    0 -0.15908331330E+02 -0.14742390416E+02 -0.37592694671E+02  0.43400734711E+02  0.00000000000E+00 0.  1.
         11    1    3    3    0    0  0.11524459130E+02  0.35402629526E+01  0.62542824237E+01  0.13581703461E+02  0.51100000000E-03 0. -1.
        -11    1    3    3    0    0 -0.11670960327E+00  0.91459130910E+00  0.10447296712E+02  0.10487902900E+02  0.51100000000E-03 0.  1.
         12    1    3    3    0    0  0.45005818033E+01  0.10287536154E+02  0.20891115535E+02  0.23717658927E+02  0.00000000000E+00 0. -1.
</event>
<event>
 7    1  0.9175399E-010  0.4778727E+02  0.7816164E-02  0.1312668E+00
        -11   -1    0    0    0    0  0.00000000000E+00  0.00000000000E+00  0.45593999997E+02  0.45594000000E+02  0.51100000000E-03 0. -1.
         11   -1    0    0    0    0 -0.00000000000E+00 -0.00000000000E+00 -0.45593999997E+02  0.45594000000E+02  0.51100000000E-03 0.  1.
    9900012    2    1    2    0    0 -0.22268464422E+01 -0.16262993574E+02 -0.40176854338E+02  0.47787269251E+02  0.19999991823E+02 0.  0.
         12    1    1    2    0    0  0.22268464422E+01  0.16262993574E+02  0.40176854338E+02  0.43400730749E+02  0.00000000000E+00 0. -1.
         11    1    3    3    0    0 -0.33198213475E+01  0.31170785092E+01 -0.23381817107E+01  0.51190317625E+01  0.51100000000E-03 0. -1.
        -11    1    3    3    0    0 -0.11600559595E+01 -0.84161742714E+01 -0.17492910780E+02  0.19446841569E+02  0.51100000000E-03 0.  1.
         12    1    3    3    0    0  0.22530308647E+01 -0.10963897812E+02 -0.20345761847E+02  0.23221395920E+02  0.00000000000E+00 0. -1.
</event>
<event>
 7    1  0.9175399E-010  0.4778727E+02  0.7816164E-02  0.1312668E+00
        -11   -1    0    0    0    0  0.00000000000E+00  0.00000000000E+00  0.45593999997E+02  0.45594000000E+02  0.51100000000E-03 0. -1.
         11   -1    0    0    0    0 -0.00000000000E+00 -0.00000000000E+00 -0.45593999997E+02  0.45594000000E+02  0.51100000000E-03 0.  1.
    9900012    2    1    2    0    0  0.24403535558E+02  0.97643122415E+01 -0.34536197096E+02  0.47787271306E+02  0.20000001192E+02 0.  0.
         12    1    1    2    0    0 -0.24403535558E+02 -0.97643122415E+01  0.34536197096E+02  0.43400728694E+02  0.00000000000E+00 0. -1.
         11    1    3    3    0    0 -0.20587205854E+00  0.70853647883E-01  0.24138886632E+00  0.32507289922E+00  0.51100000000E-03 0. -1.
        -11    1    3    3    0    0  0.22674220097E+02  0.10988306491E+01 -0.19982508751E+02  0.30242822985E+02  0.51100000000E-03 0.  1.
        -12    1    3    3    0    0  0.19351875194E+01  0.85946279445E+01 -0.14795077211E+02  0.17219375422E+02  0.00000000000E+00 0.  1.
</event>
<event>
 7    1  0.9175399E-010  0.4778727E+02  0.7816164E-02  0.1312668E+00
        -11   -1    0    0    0    0  0.00000000000E+00  0.00000000000E+00  0.45593999997E+02  0.45594000000E+02  0.51100000000E-03 0. -1.
         11   -1    0    0    0    0 -0.00000000000E+00 -0.00000000000E+00 -0.45593999997E+02  0.45594000000E+02  0.51100000000E-03 0.  1.
    9900012    2    1    2    0    0  0.22599561939E+02 -0.32643299659E+02  0.17529918618E+02  0.47787271213E+02  0.20000000770E+02 0.  0.
        -12    1    1    2    0    0 -0.22599561939E+02  0.32643299659E+02 -0.17529918618E+02  0.43400728787E+02  0.00000000000E+00 0.  1.
         11    1    3    3    0    0  0.82187010404E+01 -0.13592980605E+02  0.11246016288E+02  0.19462503722E+02  0.51100000000E-03 0. -1.
        -11    1    3    3    0    0 -0.27348790667E+01 -0.15659338845E+01  0.69387573022E+00  0.32269453404E+01  0.51100000000E-03 0.  1.
        -12    1    3    3    0    0  0.17115739965E+02 -0.17484385169E+02  0.55900265992E+01  0.25097822150E+02  0.00000000000E+00 0.  1.
</event>
<event>
 7    1  0.9175399E-010  0.4778727E+02  0.7816164E-02  0.1312668E+00
        -11   -1    0    0    0    0  0.00000000000E+00  0.00000000000E+00  0.45593999997E+02  0.45594000000E+02  0.51100000000E-03 0. -1.
         11   -1    0    0    0    0 -0.00000000000E+00 -0.00000000000E+00 -0.45593999997E+02  0.45594000000E+02  0.51100000000E-03 0.  1.
    9900012    2    1    2    0    0 -0.15005526258E+02 -0.24595841633E+02 -0.32457690781E+02  0.47787274951E+02  0.20000017813E+02 0.  0.
         12    1    1    2    0    0  0.15005526258E+02  0.24595841633E+02  0.32457690781E+02  0.43400725049E+02  0.00000000000E+00 0. -1.
         11    1    3    3    0    0 -0.35739406839E+00 -0.10204855775E+02 -0.41518804340E+01  0.11022927166E+02  0.51100000000E-03 0. -1.
        -11    1    3    3    0    0 -0.13895107235E+02 -0.72540124384E+01 -0.15266716307E+02  0.21880752468E+02  0.51100000000E-03 0.  1.
        -12    1    3    3    0    0 -0.75302495478E+00 -0.71369734195E+01 -0.13039094040E+02  0.14883595317E+02  0.00000000000E+00 0.  1.
</event>
<event>
 7    1  0.9175399E-010  0.4778727E+02  0.7816164E-02  0.1312668E+00
        -11   -1    0    0    0    0  0.00000000000E+00  0.00000000000E+00  0.45593999997E+02  0.45594000000E+02  0.51100000000E-03 0. -1.
         11   -1    0    0    0    0 -0.00000000000E+00 -0.00000000000E+00 -0.45593999997E+02  0.45594000000E+02  0.51100000000E-03 0.  1.
    9900012    2    1    2    0    0 -0.58243251260E+01  0.25088272346E+02 -0.34932494192E+02  0.47787270479E+02  0.19999997423E+02 0.  0.
         12    1    1    2    0    0  0.58243251260E+01 -0.25088272346E+02  0.34932494192E+02  0.43400729521E+02  0.00000000000E+00 0. -1.
         11    1    3    3    0    0 -0.20389403157E+01  0.70977864437E+01  0.40363975260E+00  0.73958620405E+01  0.51100000000E-03 0. -1.
        -11    1    3    3    0    0  0.14318491303E+01  0.11797314616E+01 -0.22651371994E+01  0.29279352873E+01  0.51100000000E-03 0.  1.
         12    1    3    3    0    0 -0.52172339406E+01  0.16810754441E+02 -0.33070996745E+02  0.37463473151E+02  0.00000000000E+00 0. -1.
</event>
<event>
 7    1  0.9175399E-010  0.4778727E+02  0.7816164E-02  0.1312668E+00
        -11   -1    0    0    0    0  0.00000000000E+00  0.00000000000E+00  0.45593999997E+02  0.45594000000E+02  0.51100000000E-03 0.  1.
         11   -1    0    0    0    0 -0.00000000000E+00 -0.00000000000E+00 -0.45593999997E+02  0.45594000000E+02  0.51100000000E-03 0. -1.
    9900012    2    1    2    0    0 -0.20923061237E+02  0.72867318759E+01 -0.37319595551E+02  0.47787272298E+02  0.20000005714E+02 0.  0.
         12    1    1    2    0    0  0.20923061237E+02 -0.72867318759E+01  0.37319595551E+02  0.43400727702E+02  0.00000000000E+00 0. -1.
         11    1    3    3    0    0  0.83351447548E+00  0.30177340226E+00 -0.12086023954E+01  0.14988440808E+01  0.51100000000E-03 0. -1.
        -11    1    3    3    0    0 -0.15757267400E+02  0.12528877743E+02 -0.29815254490E+02  0.35975181083E+02  0.51100000000E-03 0.  1.
        -12    1    3    3    0    0 -0.59993083127E+01 -0.55439192690E+01 -0.62957386665E+01  0.10313247134E+02  0.00000000000E+00 0.  1.
</event>
<event>
 7    1  0.9175399E-010  0.4778726E+02  0.7816164E-02  0.1312668E+00
        -11   -1    0    0    0    0  0.00000000000E+00  0.00000000000E+00  0.45593999997E+02  0.45594000000E+02  0.51100000000E-03 0. -1.
         11   -1    0    0    0    0 -0.00000000000E+00 -0.00000000000E+00 -0.45593999997E+02  0.45594000000E+02  0.51100000000E-03 0.  1.
    9900012    2    1    2    0    0  0.14285150427E+02  0.23373592080E+01  0.40915708114E+02  0.47787263356E+02  0.19999964944E+02 0.  0.
        -12    1    1    2    0    0 -0.14285150427E+02 -0.23373592080E+01 -0.40915708114E+02  0.43400736644E+02  0.00000000000E+00 0.  1.
         11    1    3    3    0    0  0.80750315346E+01  0.68483850243E+01  0.17310811457E+02  0.20292134074E+02  0.51100000000E-03 0. -1.
        -11    1    3    3    0    0 -0.28105975041E+01 -0.37872243443E+01  0.11088856507E+02  0.12050114749E+02  0.51100000000E-03 0.  1.
         12    1    3    3    0    0  0.90207163966E+01 -0.72380147199E+00  0.12516040150E+02  0.15445014533E+02  0.00000000000E+00 0. -1.
</event>
<event>
 7    1  0.9175399E-010  0.4778727E+02  0.7816164E-02  0.1312668E+00
        -11   -1    0    0    0    0  0.00000000000E+00  0.00000000000E+00  0.45593999997E+02  0.45594000000E+02  0.51100000000E-03 0. -1.
         11   -1    0    0    0    0 -0.00000000000E+00 -0.00000000000E+00 -0.45593999997E+02  0.45594000000E+02  0.51100000000E-03 0.  1.
    9900012    2    1    2    0    0  0.26392075055E+02  0.14257133030E+01  0.34424544765E+02  0.47787267674E+02  0.19999984633E+02 0.  0.
        -12    1    1    2    0    0 -0.26392075055E+02 -0.14257133030E+01 -0.34424544765E+02  0.43400732326E+02  0.00000000000E+00 0.  1.
         11    1    3    3    0    0  0.12243199889E+02  0.23157269736E+01  0.71932829213E+01  0.14387559014E+02  0.51100000000E-03 0. -1.
        -11    1    3    3    0    0  0.71982408106E+01  0.27954763867E+01  0.23415436610E+02  0.24655872138E+02  0.51100000000E-03 0.  1.
        -12    1    3    3    0    0  0.69506343556E+01 -0.36854900573E+01  0.38158252340E+01  0.87438365220E+01  0.00000000000E+00 0.  1.
</event>
<event>
 7    1  0.9175399E-010  0.4778727E+02  0.7816164E-02  0.1312668E+00
        -11   -1    0    0    0    0  0.00000000000E+00  0.00000000000E+00  0.45593999997E+02  0.45594000000E+02  0.51100000000E-03 0. -1.
         11   -1    0    0    0    0 -0.00000000000E+00 -0.00000000000E+00 -0.45593999997E+02  0.45594000000E+02  0.51100000000E-03 0.  1.
    9900012    2    1    2    0    0  0.22843962875E+02  0.32907493939E+01  0.36755240887E+02  0.47787269544E+02  0.19999993161E+02 0.  0.
        -12    1    1    2    0    0 -0.22843962875E+02 -0.32907493939E+01 -0.36755240887E+02  0.43400730456E+02  0.00000000000E+00 0.  1.
         11    1    3    3    0    0  0.18885136452E+02  0.75989631735E+01  0.31297707846E+02  0.37335494329E+02  0.51100000000E-03 0. -1.
        -11    1    3    3    0    0  0.51216981742E+01 -0.46921198910E+01  0.27324621445E+01  0.74641899019E+01  0.51100000000E-03 0.  1.
         12    1    3    3    0    0 -0.11628717513E+01  0.38390611145E+00  0.27250708971E+01  0.29875853137E+01  0.00000000000E+00 0. -1.
</event>
<event>
 7    1  0.9175399E-010  0.4778728E+02  0.7816164E-02  0.1312668E+00
        -11   -1    0    0    0    0  0.00000000000E+00  0.00000000000E+00  0.45593999997E+02  0.45594000000E+02  0.51100000000E-03 0. -1.
         11   -1    0    0    0    0 -0.00000000000E+00 -0.00000000000E+00 -0.45593999997E+02  0.45594000000E+02  0.51100000000E-03 0.  1.
    9900012    2    1    2    0    0  0.63248967605E+01  0.58736635245E+01 -0.42533735612E+02  0.47787275267E+02  0.20000019252E+02 0.  0.
         12    1    1    2    0    0 -0.63248967605E+01 -0.58736635245E+01  0.42533735612E+02  0.43400724733E+02  0.00000000000E+00 0. -1.
         11    1    3    3    0    0  0.21186702275E+01  0.21424191707E+01 -0.31085577765E+02  0.31231264283E+02  0.51100000000E-03 0. -1.
        -11    1    3    3    0    0 -0.18058025065E+01  0.29771449148E+01 -0.96143330204E+01  0.10225444451E+02  0.51100000000E-03 0.  1.
         12    1    3    3    0    0  0.60120290396E+01  0.75409943904E+00 -0.18338248265E+01  0.63305665332E+01  0.00000000000E+00 0. -1.
</event>
<event>
 7    1  0.9175399E-010  0.4778727E+02  0.7816164E-02  0.1312668E+00
        -11   -1    0    0    0    0  0.00000000000E+00  0.00000000000E+00  0.45593999997E+02  0.45594000000E+02  0.51100000000E-03 0. -1.
         11   -1    0    0    0    0 -0.00000000000E+00 -0.00000000000E+00 -0.45593999997E+02  0.45594000000E+02  0.51100000000E-03 0.  1.
    9900012    2    1    2    0    0 -0.30193030420E+02  0.29057222749E+01 -0.31041279470E+02  0.47787270294E+02  0.19999996577E+02 0.  0.
         12    1    1    2    0    0  0.30193030420E+02 -0.29057222749E+01  0.31041279470E+02  0.43400729706E+02  0.00000000000E+00 0. -1.
         11    1    3    3    0    0 -0.48958560539E+01  0.19240817403E+01 -0.13646778292E+01  0.54345048424E+01  0.51100000000E-03 0. -1.
        -11    1    3    3    0    0 -0.19391905652E+02  0.21380881711E+01 -0.10296196211E+02  0.22059670952E+02  0.51100000000E-03 0.  1.
        -12    1    3    3    0    0 -0.59052687144E+01 -0.11564476365E+01 -0.19380405430E+02  0.20293094499E+02  0.00000000000E+00 0.  1.
</event>
<event>
 7    1  0.9175399E-010  0.4778727E+02  0.7816164E-02  0.1312668E+00
        -11   -1    0    0    0    0  0.00000000000E+00  0.00000000000E+00  0.45593999997E+02  0.45594000000E+02  0.51100000000E-03 0.  1.
         11   -1    0    0    0    0 -0.00000000000E+00 -0.00000000000E+00 -0.45593999997E+02  0.45594000000E+02  0.51100000000E-03 0. -1.
    9900012    2    1    2    0    0 -0.21131220591E+02  0.31732581382E+02 -0.20739767082E+02  0.47787272547E+02  0.20000006852E+02 0.  0.
         12    1    1    2    0    0  0.21131220591E+02 -0.31732581382E+02  0.20739767082E+02  0.43400727453E+02  0.00000000000E+00 0. -1.
         11    1    3    3    0    0 -0.17826006652E+02  0.99553383632E+01 -0.81752094476E+01  0.21993392755E+02  0.51100000000E-03 0. -1.
        -11    1    3    3    0    0 -0.28647423024E+01  0.12916703591E+02 -0.99205214844E+01  0.16536768938E+02  0.51100000000E-03 0.  1.
         12    1    3    3    0    0 -0.44047163604E+00  0.88605394273E+01 -0.26440361500E+01  0.92571108542E+01  0.00000000000E+00 0. -1.
</event>
<event>
 7    1  0.9175399E-010  0.4778727E+02  0.7816164E-02  0.1312668E+00
        -11   -1    0    0    0    0  0.00000000000E+00  0.00000000000E+00  0.45593999997E+02  0.45594000000E+02  0.51100000000E-03 0. -1.
         11   -1    0    0    0    0 -0.00000000000E+00 -0.00000000000E+00 -0.45593999997E+02  0.45594000000E+02  0.51100000000E-03 0.  1.
    9900012    2    1    2    0    0 -0.18725904270E+02  0.28539219900E+02  0.26804413855E+02  0.47787272295E+02  0.20000005701E+02 0.  0.
        -12    1    1    2    0    0  0.18725904270E+02 -0.28539219900E+02 -0.26804413855E+02  0.43400727705E+02  0.00000000000E+00 0.  1.
         11    1    3    3    0    0 -0.46061547561E+00  0.15047911355E+02  0.13474977822E+02  0.20204623984E+02  0.51100000000E-03 0. -1.
        -11    1    3    3    0    0 -0.37535456210E+01  0.73396890714E+01  0.31803444632E+01  0.88359906948E+01  0.51100000000E-03 0.  1.
         12    1    3    3    0    0 -0.14511743174E+02  0.61516194734E+01  0.10149091570E+02  0.18746657616E+02  0.00000000000E+00 0. -1.
</event>
<event>
 7    1  0.9175399E-010  0.4778727E+02  0.7816164E-02  0.1312668E+00
        -11   -1    0    0    0    0  0.00000000000E+00  0.00000000000E+00  0.45593999997E+02  0.45594000000E+02  0.51100000000E-03 0.  1.
         11   -1    0    0    0    0 -0.00000000000E+00 -0.00000000000E+00 -0.45593999997E+02  0.45594000000E+02  0.51100000000E-03 0. -1.
    9900012    2    1    2    0    0  0.18739483740E+02 -0.24351303947E+02  0.30650763807E+02  0.47787267556E+02  0.19999984095E+02 0.  0.
        -12    1    1    2    0    0 -0.18739483740E+02  0.24351303947E+02 -0.30650763807E+02  0.43400732444E+02  0.00000000000E+00 0.  1.
         11    1    3    3    0    0  0.10734762388E+02 -0.19652744316E+02  0.15884847301E+02  0.27455306531E+02  0.51100000000E-03 0. -1.
        -11    1    3    3    0    0  0.56899245997E+01  0.45241133459E+00  0.14814367775E+01  0.58969969606E+01  0.51100000000E-03 0.  1.
        -12    1    3    3    0    0  0.23147967518E+01 -0.51509709654E+01  0.13284479728E+02  0.14434964064E+02  0.00000000000E+00 0.  1.
</event>
<event>
 7    1  0.9175399E-010  0.4778727E+02  0.7816164E-02  0.1312668E+00
        -11   -1    0    0    0    0  0.00000000000E+00  0.00000000000E+00  0.45593999997E+02  0.45594000000E+02  0.51100000000E-03 0. -1.
         11   -1    0    0    0    0 -0.00000000000E+00 -0.00000000000E+00 -0.45593999997E+02  0.45594000000E+02  0.51100000000E-03 0.  1.
    9900012    2    1    2    0    0  0.11473235580E+02 -0.26982842167E+02  0.31998667233E+02  0.47787267163E+02  0.19999982305E+02 0.  0.
        -12    1    1    2    0    0 -0.11473235580E+02  0.26982842167E+02 -0.31998667233E+02  0.43400732837E+02  0.00000000000E+00 0.  1.
         11    1    3    3    0    0 -0.26075496360E+01 -0.11785615374E+02  0.20619370550E+02  0.23892645040E+02  0.51100000000E-03 0. -1.
        -11    1    3    3    0    0  0.11849347250E+02 -0.10595536698E+02  0.87187270532E+01  0.18129771920E+02  0.51100000000E-03 0.  1.
         12    1    3    3    0    0  0.22314379660E+01 -0.46016900940E+01  0.26605696298E+01  0.57648502038E+01  0.00000000000E+00 0. -1.
</event>
<event>
 7    1  0.9175399E-010  0.4778727E+02  0.7816164E-02  0.1312668E+00
        -11   -1    0    0    0    0  0.00000000000E+00  0.00000000000E+00  0.45593999997E+02  0.45594000000E+02  0.51100000000E-03 0. -1.
         11   -1    0    0    0    0 -0.00000000000E+00 -0.00000000000E+00 -0.45593999997E+02  0.45594000000E+02  0.51100000000E-03 0.  1.
    9900012    2    1    2    0    0 -0.38336146314E+02  0.18816096561E+02  0.77406541597E+01  0.47787270388E+02  0.19999997007E+02 0.  0.
        -12    1    1    2    0    0  0.38336146314E+02 -0.18816096561E+02 -0.77406541597E+01  0.43400729612E+02  0.00000000000E+00 0.  1.
         11    1    3    3    0    0 -0.21244691090E+02  0.11690520680E+02  0.66263791432E+01  0.25137901147E+02  0.51100000000E-03 0. -1.
        -11    1    3    3    0    0 -0.57683968388E+00  0.51547343314E+01 -0.22946473006E+01  0.56718106936E+01  0.51100000000E-03 0.  1.
        -12    1    3    3    0    0 -0.16514615541E+02  0.19708415497E+01  0.34089223171E+01  0.16977558548E+02  0.00000000000E+00 0.  1.
</event>
<event>
 7    1  0.9175399E-010  0.4778727E+02  0.7816164E-02  0.1312668E+00
        -11   -1    0    0    0    0  0.00000000000E+00  0.00000000000E+00  0.45593999997E+02  0.45594000000E+02  0.51100000000E-03 0. -1.
         11   -1    0    0    0    0 -0.00000000000E+00 -0.00000000000E+00 -0.45593999997E+02  0.45594000000E+02  0.51100000000E-03 0.  1.
    9900012    2    1    2    0    0 -0.34770786891E+02 -0.25788395092E+02  0.30942344221E+01  0.47787271560E+02  0.20000002350E+02 0.  0.
        -12    1    1    2    0    0  0.34770786891E+02  0.25788395092E+02 -0.30942344221E+01  0.43400728440E+02  0.00000000000E+00 0.  1.
         11    1    3    3    0    0 -0.16875505547E+02 -0.82926570817E+01 -0.68401571382E+01  0.20008463181E+02  0.51100000000E-03 0. -1.
        -11    1    3    3    0    0 -0.12486692515E+02 -0.97547661901E+01  0.91633737100E+01  0.18304108047E+02  0.51100000000E-03 0.  1.
        -12    1    3    3    0    0 -0.54085888298E+01 -0.77409718203E+01  0.77101785029E+00  0.94747003318E+01  0.00000000000E+00 0.  1.
</event>
<event>
 7    1  0.9175399E-010  0.4778727E+02  0.7816164E-02  0.1312668E+00
        -11   -1    0    0    0    0  0.00000000000E+00  0.00000000000E+00  0.45593999997E+02  0.45594000000E+02  0.51100000000E-03 0. -1.
         11   -1    0    0    0    0 -0.00000000000E+00 -0.00000000000E+00 -0.45593999997E+02  0.45594000000E+02  0.51100000000E-03 0.  1.
    9900012    2    1    2    0    0  0.25754457899E+02  0.16348112317E+02  0.30871834067E+02  0.47787274008E+02  0.20000013510E+02 0.  0.
        -12    1    1    2    0    0 -0.25754457899E+02 -0.16348112317E+02 -0.30871834067E+02  0.43400725992E+02  0.00000000000E+00 0.  1.
         11    1    3    3    0    0  0.13250906939E+02  0.81496603478E+01  0.99186707236E+01  0.18449485838E+02  0.51100000000E-03 0. -1.
        -11    1    3    3    0    0  0.11537493845E+02  0.65841900933E+01  0.22998218754E+02  0.26559054756E+02  0.51100000000E-03 0.  1.
        -12    1    3    3    0    0  0.96605711499E+00  0.16142618757E+01 -0.20450554106E+01  0.27787334139E+01  0.00000000000E+00 0.  1.
</event>
<event>
 7    1  0.9175399E-010  0.4778727E+02  0.7816164E-02  0.1312668E+00
        -11   -1    0    0    0    0  0.00000000000E+00  0.00000000000E+00  0.45593999997E+02  0.45594000000E+02  0.51100000000E-03 0. -1.
         11   -1    0    0    0    0 -0.00000000000E+00 -0.00000000000E+00 -0.45593999997E+02  0.45594000000E+02  0.51100000000E-03 0.  1.
    9900012    2    1    2    0    0  0.28626211685E+02 -0.30198212148E+01  0.32481439731E+02  0.47787271405E+02  0.20000001644E+02 0.  0.
        -12    1    1    2    0    0 -0.28626211685E+02  0.30198212148E+01 -0.32481439731E+02  0.43400728595E+02  0.00000000000E+00 0.  1.
         11    1    3    3    0    0  0.13632908690E+02 -0.26977069833E+01  0.52340020424E+01  0.14850205385E+02  0.51100000000E-03 0. -1.
        -11    1    3    3    0    0  0.93499519479E+00 -0.93660130258E+00  0.12438468547E+02  0.12508674513E+02  0.51100000000E-03 0.  1.
        -12    1    3    3    0    0  0.14058307800E+02  0.61448707107E+00  0.14808969142E+02  0.20428391508E+02  0.00000000000E+00 0.  1.
</event>
<event>
 7    1  0.9175399E-010  0.4778727E+02  0.7816164E-02  0.1312668E+00
        -11   -1    0    0    0    0  0.00000000000E+00  0.00000000000E+00  0.45593999997E+02  0.45594000000E+02  0.51100000000E-03 0. -1.
         11   -1    0    0    0    0 -0.00000000000E+00 -0.00000000000E+00 -0.45593999997E+02  0.45594000000E+02  0.51100000000E-03 0.  1.
    9900012    2    1    2    0    0 -0.33665072939E+02  0.72447517196E+01  0.26415897432E+02  0.47787271888E+02  0.20000003848E+02 0.  0.
        -12    1    1    2    0    0  0.33665072939E+02 -0.72447517196E+01 -0.26415897432E+02  0.43400728112E+02  0.00000000000E+00 0.  1.
         11    1    3    3    0    0 -0.39720937676E+01  0.55341718679E+01  0.94935137753E+01  0.11684664789E+02  0.51100000000E-03 0.  1.
        -11    1    3    3    0    0 -0.13897441128E+02 -0.49435782397E+01  0.77278006816E+01  0.16652229261E+02  0.51100000000E-03 0. -1.
         12    1    3    3    0    0 -0.15795538044E+02  0.66541580914E+01  0.91945829751E+01  0.19450377839E+02  0.00000000000E+00 0. -1.
</event>
<event>
 7    1  0.9175399E-010  0.4778727E+02  0.7816164E-02  0.1312668E+00
        -11   -1    0    0    0    0  0.00000000000E+00  0.00000000000E+00  0.45593999997E+02  0.45594000000E+02  0.51100000000E-03 0.  1.
         11   -1    0    0    0    0 -0.00000000000E+00 -0.00000000000E+00 -0.45593999997E+02  0.45594000000E+02  0.51100000000E-03 0. -1.
    9900012    2    1    2    0    0  0.14341251325E+02  0.36086444238E+02 -0.19383500959E+02  0.47787273545E+02  0.20000011403E+02 0.  0.
        -12    1    1    2    0    0 -0.14341251325E+02 -0.36086444238E+02  0.19383500959E+02  0.43400726455E+02  0.00000000000E+00 0.  1.
         11    1    3    3    0    0  0.80811380426E+01  0.28260626311E+02 -0.13113614679E+02  0.32185939194E+02  0.51100000000E-03 0.  1.
        -11    1    3    3    0    0  0.52706968171E+01  0.35260505893E+01 -0.85419716832E+01  0.10638541168E+02  0.51100000000E-03 0. -1.
        -12    1    3    3    0    0  0.98941646569E+00  0.42997673376E+01  0.22720854029E+01  0.49627931831E+01  0.00000000000E+00 0.  1.
</event>
<event>
 7    1  0.9175399E-010  0.4778727E+02  0.7816164E-02  0.1312668E+00
        -11   -1    0    0    0    0  0.00000000000E+00  0.00000000000E+00  0.45593999997E+02  0.45594000000E+02  0.51100000000E-03 0. -1.
         11   -1    0    0    0    0 -0.00000000000E+00 -0.00000000000E+00 -0.45593999997E+02  0.45594000000E+02  0.51100000000E-03 0.  1.
    9900012    2    1    2    0    0  0.27100634874E+02  0.11703074139E+02  0.31815352515E+02  0.47787274078E+02  0.20000013833E+02 0.  0.
        -12    1    1    2    0    0 -0.27100634874E+02 -0.11703074139E+02 -0.31815352515E+02  0.43400725922E+02  0.00000000000E+00 0.  1.
         11    1    3    3    0    0  0.21062505083E+02  0.11516281353E+01  0.15339888690E+02  0.26081939211E+02  0.51100000000E-03 0. -1.
        -11    1    3    3    0    0  0.54084592200E+01  0.75449580340E+01  0.66725843317E+01  0.11432462761E+02  0.51100000000E-03 0.  1.
         12    1    3    3    0    0  0.62967057103E+00  0.30064879701E+01  0.98028794929E+01  0.10272872105E+02  0.00000000000E+00 0. -1.
</event>
<event>
 7    1  0.9175399E-010  0.4778727E+02  0.7816164E-02  0.1312668E+00
        -11   -1    0    0    0    0  0.00000000000E+00  0.00000000000E+00  0.45593999997E+02  0.45594000000E+02  0.51100000000E-03 0. -1.
         11   -1    0    0    0    0 -0.00000000000E+00 -0.00000000000E+00 -0.45593999997E+02  0.45594000000E+02  0.51100000000E-03 0.  1.
    9900012    2    1    2    0    0 -0.16559439559E+02 -0.11824096262E+02 -0.38335348924E+02  0.47787271112E+02  0.20000000306E+02 0.  0.
         12    1    1    2    0    0  0.16559439559E+02  0.11824096262E+02  0.38335348924E+02  0.43400728888E+02  0.00000000000E+00 0. -1.
         11    1    3    3    0    0 -0.90814600958E+01 -0.12835389321E+02 -0.17316666824E+02  0.23389892831E+02  0.51100000000E-03 0. -1.
        -11    1    3    3    0    0 -0.47697996924E+01  0.53852992130E+01 -0.11172903603E+02  0.13288574487E+02  0.51100000000E-03 0.  1.
        -12    1    3    3    0    0 -0.27081797707E+01 -0.43740061546E+01 -0.98457784972E+01  0.11108803794E+02  0.00000000000E+00 0.  1.
</event>
<event>
 7    1  0.9175399E-010  0.4778727E+02  0.7816164E-02  0.1312668E+00
        -11   -1    0    0    0    0  0.00000000000E+00  0.00000000000E+00  0.45593999997E+02  0.45594000000E+02  0.51100000000E-03 0. -1.
         11   -1    0    0    0    0 -0.00000000000E+00 -0.00000000000E+00 -0.45593999997E+02  0.45594000000E+02  0.51100000000E-03 0.  1.
    9900012    2    1    2    0    0 -0.26445216883E+02  0.26435141378E+02  0.22033091765E+02  0.47787270416E+02  0.19999997136E+02 0.  0.
        -12    1    1    2    0    0  0.26445216883E+02 -0.26435141378E+02 -0.22033091765E+02  0.43400729584E+02  0.00000000000E+00 0.  1.
         11    1    3    3    0    0 -0.17401886570E+01  0.12864067091E+02  0.69172898996E+01  0.14709227665E+02  0.51100000000E-03 0. -1.
        -11    1    3    3    0    0 -0.41838186337E+01  0.37442993710E+01 -0.25421299538E+00  0.56203861654E+01  0.51100000000E-03 0.  1.
         12    1    3    3    0    0 -0.20521209592E+02  0.98267749166E+01  0.15370014861E+02  0.27457656586E+02  0.00000000000E+00 0. -1.
</event>
<event>
 7    1  0.9175399E-010  0.4778727E+02  0.7816164E-02  0.1312668E+00
        -11   -1    0    0    0    0  0.00000000000E+00  0.00000000000E+00  0.45593999997E+02  0.45594000000E+02  0.51100000000E-03 0. -1.
         11   -1    0    0    0    0 -0.00000000000E+00 -0.00000000000E+00 -0.45593999997E+02  0.45594000000E+02  0.51100000000E-03 0.  1.
    9900012    2    1    2    0    0 -0.24776277733E+02  0.35901139262E+01  0.35452367614E+02  0.47787271599E+02  0.20000002528E+02 0.  0.
        -12    1    1    2    0    0  0.24776277733E+02 -0.35901139262E+01 -0.35452367614E+02  0.43400728401E+02  0.00000000000E+00 0.  1.
         11    1    3    3    0    0 -0.42371011784E+01 -0.21491807931E+01  0.14403500909E+01  0.49645355395E+01  0.51100000000E-03 0. -1.
        -11    1    3    3    0    0  0.10269057162E+01  0.11226787588E+01 -0.71746586684E+00  0.16821713577E+01  0.51100000000E-03 0.  1.
         12    1    3    3    0    0 -0.21566082271E+02  0.46166159605E+01  0.34729483390E+02  0.41140564702E+02  0.00000000000E+00 0. -1.
</event>
<event>
 7    1  0.9175399E-010  0.4778728E+02  0.7816164E-02  0.1312668E+00
        -11   -1    0    0    0    0  0.00000000000E+00  0.00000000000E+00  0.45593999997E+02  0.45594000000E+02  0.51100000000E-03 0. -1.
         11   -1    0    0    0    0 -0.00000000000E+00 -0.00000000000E+00 -0.45593999997E+02  0.45594000000E+02  0.51100000000E-03 0.  1.
    9900012    2    1    2    0    0  0.18732488616E+02  0.10089674141E+02  0.37827429458E+02  0.47787284874E+02  0.20000063054E+02 0.  0.
        -12    1    1    2    0    0 -0.18732488616E+02 -0.10089674141E+02 -0.37827429458E+02  0.43400715126E+02  0.00000000000E+00 0.  1.
         11    1    3    3    0    0  0.55186620470E+01 -0.10226820710E+01  0.68326060361E+01  0.88422856159E+01  0.51100000000E-03 0. -1.
        -11    1    3    3    0    0  0.11267185576E+02  0.10726837514E+02  0.11491220460E+02  0.19340699620E+02  0.51100000000E-03 0.  1.
        -12    1    3    3    0    0  0.19466409934E+01  0.38551869811E+00  0.19503602962E+02  0.19604299638E+02  0.00000000000E+00 0.  1.
</event>
<event>
 7    1  0.9175399E-010  0.4778727E+02  0.7816164E-02  0.1312668E+00
        -11   -1    0    0    0    0  0.00000000000E+00  0.00000000000E+00  0.45593999997E+02  0.45594000000E+02  0.51100000000E-03 0. -1.
         11   -1    0    0    0    0 -0.00000000000E+00 -0.00000000000E+00 -0.45593999997E+02  0.45594000000E+02  0.51100000000E-03 0.  1.
    9900012    2    1    2    0    0 -0.17015682512E+02 -0.14171302764E+02 -0.37326453260E+02  0.47787269749E+02  0.19999994093E+02 0.  0.
         12    1    1    2    0    0  0.17015682512E+02  0.14171302764E+02  0.37326453260E+02  0.43400730251E+02  0.00000000000E+00 0. -1.
         11    1    3    3    0    0  0.21187966568E+01 -0.85944422318E+01 -0.64467396281E+01  0.10950533715E+02  0.51100000000E-03 0. -1.
        -11    1    3    3    0    0 -0.96156449353E+01 -0.29221164484E+01 -0.13301865495E+02  0.16671503170E+02  0.51100000000E-03 0.  1.
         12    1    3    3    0    0 -0.95188342330E+01 -0.26547440837E+01 -0.17577848137E+02  0.20165232864E+02  0.00000000000E+00 0. -1.
</event>
<event>
 7    1  0.9175399E-010  0.4778727E+02  0.7816164E-02  0.1312668E+00
        -11   -1    0    0    0    0  0.00000000000E+00  0.00000000000E+00  0.45593999997E+02  0.45594000000E+02  0.51100000000E-03 0. -1.
         11   -1    0    0    0    0 -0.00000000000E+00 -0.00000000000E+00 -0.45593999997E+02  0.45594000000E+02  0.51100000000E-03 0.  1.
    9900012    2    1    2    0    0 -0.22995652024E+01  0.24682596213E+02 -0.35624500378E+02  0.47787267482E+02  0.19999983757E+02 0.  0.
         12    1    1    2    0    0  0.22995652024E+01 -0.24682596213E+02  0.35624500378E+02  0.43400732518E+02  0.00000000000E+00 0. -1.
         11    1    3    3    0    0 -0.73015211810E+01  0.75827597588E+01 -0.23080084908E+02  0.25367317098E+02  0.51100000000E-03 0. -1.
        -11    1    3    3    0    0  0.37188096515E+01  0.11988027018E+02 -0.11548897490E+02  0.17056358653E+02  0.51100000000E-03 0.  1.
         12    1    3    3    0    0  0.12831463270E+01  0.51118094366E+01 -0.99551797978E+00  0.53635917314E+01  0.00000000000E+00 0. -1.
</event>
<event>
 7    1  0.9175399E-010  0.4778727E+02  0.7816164E-02  0.1312668E+00
        -11   -1    0    0    0    0  0.00000000000E+00  0.00000000000E+00  0.45593999997E+02  0.45594000000E+02  0.51100000000E-03 0. -1.
         11   -1    0    0    0    0 -0.00000000000E+00 -0.00000000000E+00 -0.45593999997E+02  0.45594000000E+02  0.51100000000E-03 0.  1.
    9900012    2    1    2    0    0 -0.97607518413E+01  0.14458383396E+02  0.39740481374E+02  0.47787274352E+02  0.20000015080E+02 0.  0.
        -12    1    1    2    0    0  0.97607518413E+01 -0.14458383396E+02 -0.39740481374E+02  0.43400725648E+02  0.00000000000E+00 0.  1.
         11    1    3    3    0    0  0.92673625191E+00  0.48820450390E+01  0.25342155680E+02  0.25824756700E+02  0.51100000000E-03 0. -1.
        -11    1    3    3    0    0 -0.48328238012E+01  0.38853639604E+01  0.10125276124E+01  0.62831084206E+01  0.51100000000E-03 0.  1.
         12    1    3    3    0    0 -0.58546642920E+01  0.56909743970E+01  0.13385798082E+02  0.15679409232E+02  0.00000000000E+00 0. -1.
</event>
<event>
 7    1  0.9175399E-010  0.4778728E+02  0.7816164E-02  0.1312668E+00
        -11   -1    0    0    0    0  0.00000000000E+00  0.00000000000E+00  0.45593999997E+02  0.45594000000E+02  0.51100000000E-03 0. -1.
         11   -1    0    0    0    0 -0.00000000000E+00 -0.00000000000E+00 -0.45593999997E+02  0.45594000000E+02  0.51100000000E-03 0.  1.
    9900012    2    1    2    0    0 -0.33056115400E+02  0.11356761838E+02 -0.25728196553E+02  0.47787275321E+02  0.20000019497E+02 0.  0.
         12    1    1    2    0    0  0.33056115400E+02 -0.11356761838E+02  0.25728196553E+02  0.43400724679E+02  0.00000000000E+00 0. -1.
         11    1    3    3    0    0 -0.18814882529E+02  0.30985287374E+01 -0.39684487080E+01  0.19476890674E+02  0.51100000000E-03 0. -1.
        -11    1    3    3    0    0 -0.31538937076E+00  0.29226818000E+01 -0.55752132346E+01  0.63027408508E+01  0.51100000000E-03 0.  1.
         12    1    3    3    0    0 -0.13925843501E+02  0.53355513004E+01 -0.16184534611E+02  0.22007643796E+02  0.00000000000E+00 0. -1.
</event>
<event>
 7    1  0.9175399E-010  0.4778727E+02  0.7816164E-02  0.1312668E+00
        -11   -1    0    0    0    0  0.00000000000E+00  0.00000000000E+00  0.45593999997E+02  0.45594000000E+02  0.51100000000E-03 0. -1.
         11   -1    0    0    0    0 -0.00000000000E+00 -0.00000000000E+00 -0.45593999997E+02  0.45594000000E+02  0.51100000000E-03 0.  1.
    9900012    2    1    2    0    0  0.30822344903E+02  0.48252112670E+01  0.30171569821E+02  0.47787271497E+02  0.20000002063E+02 0.  0.
        -12    1    1    2    0    0 -0.30822344903E+02 -0.48252112670E+01 -0.30171569821E+02  0.43400728503E+02  0.00000000000E+00 0.  1.
         11    1    3    3    0    0  0.66691301510E+01  0.14024845719E+00  0.75131054817E+01  0.10047075238E+02  0.51100000000E-03 0.  1.
        -11    1    3    3    0    0  0.22660562142E+02  0.25593342250E+01  0.25282644494E+02  0.34047957077E+02  0.51100000000E-03 0. -1.
        -12    1    3    3    0    0  0.14926526102E+01  0.21256285848E+01 -0.26241801539E+01  0.36922391818E+01  0.00000000000E+00 0.  1.
</event>
<event>
 7    1  0.9175399E-010  0.4778722E+02  0.7816164E-02  0.1312668E+00
        -11   -1    0    0    0    0  0.00000000000E+00  0.00000000000E+00  0.45593999997E+02  0.45594000000E+02  0.51100000000E-03 0.  1.
         11   -1    0    0    0    0 -0.00000000000E+00 -0.00000000000E+00 -0.45593999997E+02  0.45594000000E+02  0.51100000000E-03 0. -1.
    9900012    2    1    2    0    0  0.15531507308E+01 -0.39199283732E+02  0.18564260947E+02  0.47787217670E+02  0.19999756644E+02 0.  0.
        -12    1    1    2    0    0 -0.15531507308E+01  0.39199283732E+02 -0.18564260947E+02  0.43400782330E+02  0.00000000000E+00 0.  1.
         11    1    3    3    0    0 -0.27835936341E+00 -0.22551130247E+02  0.31009185474E+01  0.22765031418E+02  0.51100000000E-03 0. -1.
        -11    1    3    3    0    0  0.56819566404E+01 -0.89439949165E+01  0.11178042771E+02  0.15402217917E+02  0.51100000000E-03 0.  1.
        -12    1    3    3    0    0 -0.38504465462E+01 -0.77041585686E+01  0.42852996293E+01  0.96199683351E+01  0.00000000000E+00 0.  1.
</event>
<event>
 7    1  0.9175399E-010  0.4778726E+02  0.7816164E-02  0.1312668E+00
        -11   -1    0    0    0    0  0.00000000000E+00  0.00000000000E+00  0.45593999997E+02  0.45594000000E+02  0.51100000000E-03 0. -1.
         11   -1    0    0    0    0 -0.00000000000E+00 -0.00000000000E+00 -0.45593999997E+02  0.45594000000E+02  0.51100000000E-03 0.  1.
    9900012    2    1    2    0    0 -0.92976417977E+01 -0.23509720030E+02 -0.35277057199E+02  0.47787264482E+02  0.19999970079E+02 0.  0.
         12    1    1    2    0    0  0.92976417977E+01  0.23509720030E+02  0.35277057199E+02  0.43400735518E+02  0.00000000000E+00 0. -1.
         11    1    3    3    0    0 -0.17269403311E+01 -0.17539413734E+01 -0.74113376156E+00  0.25705860737E+01  0.51100000000E-03 0. -1.
        -11    1    3    3    0    0 -0.35528996473E+01 -0.35491279208E+01  0.96851573500E+00  0.51144332914E+01  0.51100000000E-03 0.  1.
        -12    1    3    3    0    0 -0.40178018193E+01 -0.18206650736E+02 -0.35504439172E+02  0.40102245117E+02  0.00000000000E+00 0.  1.
</event>
<event>
 7    1  0.9175399E-010  0.4778728E+02  0.7816164E-02  0.1312668E+00
        -11   -1    0    0    0    0  0.00000000000E+00  0.00000000000E+00  0.45593999997E+02  0.45594000000E+02  0.51100000000E-03 0. -1.
         11   -1    0    0    0    0 -0.00000000000E+00 -0.00000000000E+00 -0.45593999997E+02  0.45594000000E+02  0.51100000000E-03 0.  1.
    9900012    2    1    2    0    0  0.88874322706E+01 -0.16764676552E+02  0.39033084815E+02  0.47787279471E+02  0.20000038422E+02 0.  0.
        -12    1    1    2    0    0 -0.88874322706E+01  0.16764676552E+02 -0.39033084815E+02  0.43400720529E+02  0.00000000000E+00 0.  1.
         11    1    3    3    0    0  0.48195203480E+01 -0.16614065861E+01  0.46756556830E+00  0.51192446758E+01  0.51100000000E-03 0. -1.
        -11    1    3    3    0    0  0.64181679176E+01 -0.14441987217E+02  0.33871077032E+02  0.37376646903E+02  0.51100000000E-03 0.  1.
        -12    1    3    3    0    0 -0.23502559951E+01 -0.66128274845E+00  0.46944422150E+01  0.52913878922E+01  0.00000000000E+00 0.  1.
</event>
<event>
 7    1  0.9175399E-010  0.4778727E+02  0.7816164E-02  0.1312668E+00
        -11   -1    0    0    0    0  0.00000000000E+00  0.00000000000E+00  0.45593999997E+02  0.45594000000E+02  0.51100000000E-03 0. -1.
         11   -1    0    0    0    0 -0.00000000000E+00 -0.00000000000E+00 -0.45593999997E+02  0.45594000000E+02  0.51100000000E-03 0.  1.
    9900012    2    1    2    0    0  0.14403706604E+01 -0.96059588381E+01 -0.42299813647E+02  0.47787270197E+02  0.19999996137E+02 0.  0.
         12    1    1    2    0    0 -0.14403706604E+01  0.96059588381E+01  0.42299813647E+02  0.43400729803E+02  0.00000000000E+00 0. -1.
         11    1    3    3    0    0 -0.48295279157E+00 -0.59363278247E+01 -0.52090497499E+01  0.79124857661E+01  0.51100000000E-03 0. -1.
        -11    1    3    3    0    0 -0.38013379672E+01 -0.10625899518E+00 -0.29406690642E+02  0.29651558409E+02  0.51100000000E-03 0.  1.
        -12    1    3    3    0    0  0.57246614192E+01 -0.35633720182E+01 -0.76840732552E+01  0.10223226022E+02  0.00000000000E+00 0.  1.
</event>
<event>
 7    1  0.9175399E-010  0.4778727E+02  0.7816164E-02  0.1312668E+00
        -11   -1    0    0    0    0  0.00000000000E+00  0.00000000000E+00  0.45593999997E+02  0.45594000000E+02  0.51100000000E-03 0. -1.
         11   -1    0    0    0    0 -0.00000000000E+00 -0.00000000000E+00 -0.45593999997E+02  0.45594000000E+02  0.51100000000E-03 0.  1.
    9900012    2    1    2    0    0  0.14209023434E+02  0.26565548260E+02  0.31240974786E+02  0.47787271816E+02  0.20000003518E+02 0.  0.
        -12    1    1    2    0    0 -0.14209023434E+02 -0.26565548260E+02 -0.31240974786E+02  0.43400728184E+02  0.00000000000E+00 0.  1.
         11    1    3    3    0    0  0.15399798125E+02  0.24483500958E+02  0.28380741554E+02  0.40522365342E+02  0.51100000000E-03 0. -1.
        -11    1    3    3    0    0 -0.30782995421E+01  0.13810776368E+01 -0.43639774389E+00  0.34020209820E+01  0.51100000000E-03 0.  1.
         12    1    3    3    0    0  0.18875248510E+01  0.70096966462E+00  0.32966309758E+01  0.38628854920E+01  0.00000000000E+00 0. -1.
</event>
<event>
 7    1  0.9175399E-010  0.4778727E+02  0.7816164E-02  0.1312668E+00
        -11   -1    0    0    0    0  0.00000000000E+00  0.00000000000E+00  0.45593999997E+02  0.45594000000E+02  0.51100000000E-03 0. -1.
         11   -1    0    0    0    0 -0.00000000000E+00 -0.00000000000E+00 -0.45593999997E+02  0.45594000000E+02  0.51100000000E-03 0.  1.
    9900012    2    1    2    0    0 -0.16917730017E+02 -0.34405804590E+01  0.39819291949E+02  0.47787271963E+02  0.20000004190E+02 0.  0.
        -12    1    1    2    0    0  0.16917730017E+02  0.34405804590E+01 -0.39819291949E+02  0.43400728037E+02  0.00000000000E+00 0.  1.
         11    1    3    3    0    0 -0.10300991673E+02 -0.50075348419E+01  0.15673508049E+02  0.19412487977E+02  0.51100000000E-03 0. -1.
        -11    1    3    3    0    0 -0.11266200488E+01  0.44647637355E+01  0.20837740763E+02  0.21340450519E+02  0.51100000000E-03 0.  1.
        -12    1    3    3    0    0 -0.54901182955E+01 -0.28978093527E+01  0.33080431356E+01  0.70343334674E+01  0.00000000000E+00 0.  1.
</event>
<event>
 7    1  0.9175399E-010  0.4778727E+02  0.7816164E-02  0.1312668E+00
        -11   -1    0    0    0    0  0.00000000000E+00  0.00000000000E+00  0.45593999997E+02  0.45594000000E+02  0.51100000000E-03 0. -1.
         11   -1    0    0    0    0 -0.00000000000E+00 -0.00000000000E+00 -0.45593999997E+02  0.45594000000E+02  0.51100000000E-03 0.  1.
    9900012    2    1    2    0    0 -0.24696035046E+02  0.32999316846E+02  0.13593166343E+02  0.47787271544E+02  0.20000002277E+02 0.  0.
        -12    1    1    2    0    0  0.24696035046E+02 -0.32999316846E+02 -0.13593166343E+02  0.43400728456E+02  0.00000000000E+00 0.  1.
         11    1    3    3    0    0 -0.14964775635E+02  0.72212232933E+01  0.52447757506E+01  0.17424070953E+02  0.51100000000E-03 0. -1.
        -11    1    3    3    0    0 -0.76714927281E+01  0.23767545267E+02  0.42177229197E+01  0.25328584556E+02  0.51100000000E-03 0.  1.
        -12    1    3    3    0    0 -0.20597666829E+01  0.20105482854E+01  0.41306676725E+01  0.50346160346E+01  0.00000000000E+00 0.  1.
</event>
<event>
 7    1  0.9175399E-010  0.4778727E+02  0.7816164E-02  0.1312668E+00
        -11   -1    0    0    0    0  0.00000000000E+00  0.00000000000E+00  0.45593999997E+02  0.45594000000E+02  0.51100000000E-03 0.  1.
         11   -1    0    0    0    0 -0.00000000000E+00 -0.00000000000E+00 -0.45593999997E+02  0.45594000000E+02  0.51100000000E-03 0. -1.
    9900012    2    1    2    0    0 -0.33019080631E+02 -0.95286384470E+01 -0.26506007522E+02  0.47787273380E+02  0.20000010651E+02 0.  0.
         12    1    1    2    0    0  0.33019080631E+02  0.95286384470E+01  0.26506007522E+02  0.43400726620E+02  0.00000000000E+00 0. -1.
         11    1    3    3    0    0 -0.51481292593E+01 -0.10074433234E+02 -0.94481342865E+01  0.14739901004E+02  0.51100000000E-03 0. -1.
        -11    1    3    3    0    0 -0.23123016241E+02  0.42624960532E+00 -0.16160811666E+02  0.28213957588E+02  0.51100000000E-03 0.  1.
         12    1    3    3    0    0 -0.47479351308E+01  0.11954518161E+00 -0.89706156861E+00  0.48334147882E+01  0.00000000000E+00 0. -1.
</event>
<event>
 7    1  0.9175399E-010  0.4778727E+02  0.7816164E-02  0.1312668E+00
        -11   -1    0    0    0    0  0.00000000000E+00  0.00000000000E+00  0.45593999997E+02  0.45594000000E+02  0.51100000000E-03 0. -1.
         11   -1    0    0    0    0 -0.00000000000E+00 -0.00000000000E+00 -0.45593999997E+02  0.45594000000E+02  0.51100000000E-03 0.  1.
    9900012    2    1    2    0    0  0.18760597821E+02  0.28378007897E+02 -0.26950916887E+02  0.47787270930E+02  0.19999999476E+02 0.  0.
         12    1    1    2    0    0 -0.18760597821E+02 -0.28378007897E+02  0.26950916887E+02  0.43400729070E+02  0.00000000000E+00 0. -1.
         11    1    3    3    0    0 -0.88207179503E+00  0.14498492838E+01 -0.10245197336E+02  0.10384805358E+02  0.51100000000E-03 0. -1.
        -11    1    3    3    0    0  0.13995623459E+02  0.16846090694E+02 -0.11303477857E+02  0.24646234187E+02  0.51100000000E-03 0.  1.
         12    1    3    3    0    0  0.56470461565E+01  0.10082067919E+02 -0.54022416935E+01  0.12756231385E+02  0.00000000000E+00 0. -1.
</event>
<event>
 7    1  0.9175399E-010  0.4778729E+02  0.7816164E-02  0.1312668E+00
        -11   -1    0    0    0    0  0.00000000000E+00  0.00000000000E+00  0.45593999997E+02  0.45594000000E+02  0.51100000000E-03 0. -1.
         11   -1    0    0    0    0 -0.00000000000E+00 -0.00000000000E+00 -0.45593999997E+02  0.45594000000E+02  0.51100000000E-03 0.  1.
    9900012    2    1    2    0    0  0.29420932685E+02 -0.95270980742E+01 -0.30451015568E+02  0.47787294627E+02  0.20000107520E+02 0.  0.
         12    1    1    2    0    0 -0.29420932685E+02  0.95270980742E+01  0.30451015568E+02  0.43400705373E+02  0.00000000000E+00 0. -1.
         11    1    3    3    0    0  0.68067494255E+01 -0.93023669980E+01 -0.13653496595E+02  0.17868515300E+02  0.51100000000E-03 0. -1.
        -11    1    3    3    0    0  0.14482242105E+02  0.99498659115E+00 -0.16082266701E+02  0.21664824883E+02  0.51100000000E-03 0.  1.
         12    1    3    3    0    0  0.81319411547E+01 -0.12197176674E+01 -0.71525227151E+00  0.82539544428E+01  0.00000000000E+00 0. -1.
</event>
<event>
 7    1  0.9175399E-010  0.4778722E+02  0.7816164E-02  0.1312668E+00
        -11   -1    0    0    0    0  0.00000000000E+00  0.00000000000E+00  0.45593999997E+02  0.45594000000E+02  0.51100000000E-03 0. -1.
         11   -1    0    0    0    0 -0.00000000000E+00 -0.00000000000E+00 -0.45593999997E+02  0.45594000000E+02  0.51100000000E-03 0.  1.
    9900012    2    1    2    0    0  0.57600972271E+01  0.16760195056E+02  0.39617483919E+02  0.47787217859E+02  0.19999757505E+02 0.  0.
        -12    1    1    2    0    0 -0.57600972271E+01 -0.16760195056E+02 -0.39617483919E+02  0.43400782141E+02  0.00000000000E+00 0.  1.
         11    1    3    3    0    0  0.18293126685E+01  0.42429235663E+01  0.26390611513E+02  0.26792035413E+02  0.51100000000E-03 0. -1.
        -11    1    3    3    0    0 -0.31279601332E+01  0.43393276246E+01  0.30714992588E+01  0.61683066385E+01  0.51100000000E-03 0.  1.
         12    1    3    3    0    0  0.70587446917E+01  0.81779438646E+01  0.10155373147E+02  0.14826875808E+02  0.00000000000E+00 0. -1.
</event>
<event>
 7    1  0.9175399E-010  0.4778727E+02  0.7816164E-02  0.1312668E+00
        -11   -1    0    0    0    0  0.00000000000E+00  0.00000000000E+00  0.45593999997E+02  0.45594000000E+02  0.51100000000E-03 0. -1.
         11   -1    0    0    0    0 -0.00000000000E+00 -0.00000000000E+00 -0.45593999997E+02  0.45594000000E+02  0.51100000000E-03 0.  1.
    9900012    2    1    2    0    0  0.31263623544E+01  0.36574623352E+02 -0.23154826829E+02  0.47787271660E+02  0.20000002807E+02 0.  0.
         12    1    1    2    0    0 -0.31263623544E+01 -0.36574623352E+02  0.23154826829E+02  0.43400728340E+02  0.00000000000E+00 0. -1.
         11    1    3    3    0    0 -0.23683503833E+01  0.60396378853E+01 -0.10140869795E+02  0.12038419738E+02  0.51100000000E-03 0. -1.
        -11    1    3    3    0    0  0.80630722135E+01  0.29322118792E+02 -0.11366559518E+02  0.32465342436E+02  0.51100000000E-03 0.  1.
        -12    1    3    3    0    0 -0.25683594758E+01  0.12128666755E+01 -0.16473975166E+01  0.32835094864E+01  0.00000000000E+00 0.  1.
</event>
<event>
 7    1  0.9175399E-010  0.4778727E+02  0.7816164E-02  0.1312668E+00
        -11   -1    0    0    0    0  0.00000000000E+00  0.00000000000E+00  0.45593999997E+02  0.45594000000E+02  0.51100000000E-03 0. -1.
         11   -1    0    0    0    0 -0.00000000000E+00 -0.00000000000E+00 -0.45593999997E+02  0.45594000000E+02  0.51100000000E-03 0.  1.
    9900012    2    1    2    0    0 -0.17498797454E+02  0.12743269697E+02 -0.37616810039E+02  0.47787271522E+02  0.20000002179E+02 0.  0.
         12    1    1    2    0    0  0.17498797454E+02 -0.12743269697E+02  0.37616810039E+02  0.43400728478E+02  0.00000000000E+00 0. -1.
         11    1    3    3    0    0 -0.79667105543E+01  0.41639285545E+01 -0.33589329658E+01  0.95963122601E+01  0.51100000000E-03 0. -1.
        -11    1    3    3    0    0 -0.89193796805E+01  0.10592125801E+02 -0.23901297580E+02  0.27622825510E+02  0.51100000000E-03 0.  1.
         12    1    3    3    0    0 -0.61270721957E+00 -0.20127846586E+01 -0.10356579493E+02  0.10568133752E+02  0.00000000000E+00 0. -1.
</event>
<event>
 7    1  0.9175399E-010  0.4778727E+02  0.7816164E-02  0.1312668E+00
        -11   -1    0    0    0    0  0.00000000000E+00  0.00000000000E+00  0.45593999997E+02  0.45594000000E+02  0.51100000000E-03 0. -1.
         11   -1    0    0    0    0 -0.00000000000E+00 -0.00000000000E+00 -0.45593999997E+02  0.45594000000E+02  0.51100000000E-03 0.  1.
    9900012    2    1    2    0    0  0.25450731390E+02 -0.10338683444E+02  0.33600523566E+02  0.47787270887E+02  0.19999999283E+02 0.  0.
        -12    1    1    2    0    0 -0.25450731390E+02  0.10338683444E+02 -0.33600523566E+02  0.43400729113E+02  0.00000000000E+00 0.  1.
         11    1    3    3    0    0  0.13849620622E+02  0.23781978454E+01  0.15096639702E+02  0.20624653862E+02  0.51100000000E-03 0. -1.
        -11    1    3    3    0    0  0.12676059862E+02 -0.12949308825E+02  0.15106987405E+02  0.23592120748E+02  0.51100000000E-03 0.  1.
         12    1    3    3    0    0 -0.10749490948E+01  0.23242753526E+00  0.33968964582E+01  0.35704962769E+01  0.00000000000E+00 0. -1.
</event>
<event>
 7    1  0.9175399E-010  0.4778726E+02  0.7816164E-02  0.1312668E+00
        -11   -1    0    0    0    0  0.00000000000E+00  0.00000000000E+00  0.45593999997E+02  0.45594000000E+02  0.51100000000E-03 0. -1.
         11   -1    0    0    0    0 -0.00000000000E+00 -0.00000000000E+00 -0.45593999997E+02  0.45594000000E+02  0.51100000000E-03 0.  1.
    9900012    2    1    2    0    0 -0.92428023587E+01  0.30513241044E+02 -0.29447192013E+02  0.47787258164E+02  0.19999941274E+02 0.  0.
         12    1    1    2    0    0  0.92428023587E+01 -0.30513241044E+02  0.29447192013E+02  0.43400741836E+02  0.00000000000E+00 0. -1.
         11    1    3    3    0    0 -0.20464644975E+01  0.12280274092E+02 -0.23405571943E+02  0.26510638373E+02  0.51100000000E-03 0. -1.
        -11    1    3    3    0    0 -0.30981096762E+01  0.52340807891E+01 -0.44877944569E+01  0.75587158051E+01  0.51100000000E-03 0.  1.
         12    1    3    3    0    0 -0.40982281849E+01  0.12998886163E+02 -0.15538256127E+01  0.13717903986E+02  0.00000000000E+00 0. -1.
</event>
<event>
 7    1  0.9175399E-010  0.4778727E+02  0.7816164E-02  0.1312668E+00
        -11   -1    0    0    0    0  0.00000000000E+00  0.00000000000E+00  0.45593999997E+02  0.45594000000E+02  0.51100000000E-03 0. -1.
         11   -1    0    0    0    0 -0.00000000000E+00 -0.00000000000E+00 -0.45593999997E+02  0.45594000000E+02  0.51100000000E-03 0.  1.
    9900012    2    1    2    0    0 -0.35687654271E+02  0.24570895915E+02 -0.25070732524E+01  0.47787274087E+02  0.20000013873E+02 0.  0.
         12    1    1    2    0    0  0.35687654271E+02 -0.24570895915E+02  0.25070732524E+01  0.43400725913E+02  0.00000000000E+00 0. -1.
         11    1    3    3    0    0  0.11351649548E+01  0.11386898412E+01  0.64609959845E+00  0.17328182193E+01  0.51100000000E-03 0. -1.
        -11    1    3    3    0    0 -0.29172391840E+02  0.24277963122E+02 -0.45724045726E+01  0.38227670905E+02  0.51100000000E-03 0.  1.
        -12    1    3    3    0    0 -0.76504273859E+01 -0.84575704761E+00  0.14192317217E+01  0.78267849625E+01  0.00000000000E+00 0.  1.
</event>
<event>
 7    1  0.9865816E-010  0.4778727E+02  0.7816164E-02  0.1312668E+00
        -11   -1    0    0    0    0  0.00000000000E+00  0.00000000000E+00  0.45593999997E+02  0.45594000000E+02  0.51100000000E-03 0. -1.
         11   -1    0    0    0    0 -0.00000000000E+00 -0.00000000000E+00 -0.45593999997E+02  0.45594000000E+02  0.51100000000E-03 0.  1.
    9900012    2    1    2    0    0 -0.79875228056E+01  0.82347729439E+01 -0.41857036766E+02  0.47787268061E+02  0.19999986398E+02 0.  0.
         12    1    1    2    0    0  0.79875228056E+01 -0.82347729439E+01  0.41857036766E+02  0.43400731939E+02  0.00000000000E+00 0. -1.
         11    1    3    3    0    0 -0.98301974916E+00 -0.53650972838E+01 -0.14004938458E+02  0.15029600732E+02  0.51100000000E-03 0. -1.
        -11    1    3    3    0    0 -0.20464227555E+01  0.56506643997E+00 -0.93521267559E+01  0.95900688889E+01  0.51100000000E-03 0.  1.
         12    1    3    3    0    0 -0.49580803010E+01  0.13034803788E+02 -0.18499971552E+02  0.23167598440E+02  0.00000000000E+00 0. -1.
</event>
<event>
 7    1  0.9175399E-010  0.4778727E+02  0.7816164E-02  0.1312668E+00
        -11   -1    0    0    0    0  0.00000000000E+00  0.00000000000E+00  0.45593999997E+02  0.45594000000E+02  0.51100000000E-03 0. -1.
         11   -1    0    0    0    0 -0.00000000000E+00 -0.00000000000E+00 -0.45593999997E+02  0.45594000000E+02  0.51100000000E-03 0.  1.
    9900012    2    1    2    0    0  0.33023982924E+02 -0.14099174294E+02 -0.24377307055E+02  0.47787271168E+02  0.20000000562E+02 0.  0.
         12    1    1    2    0    0 -0.33023982924E+02  0.14099174294E+02  0.24377307055E+02  0.43400728832E+02  0.00000000000E+00 0. -1.
         11    1    3    3    0    0  0.24458437481E+02 -0.43552188438E+01 -0.14955474405E+02  0.28997401782E+02  0.51100000000E-03 0. -1.
        -11    1    3    3    0    0  0.78661081965E+01 -0.46680670466E+01 -0.13743007142E+01  0.92496059821E+01  0.51100000000E-03 0.  1.
         12    1    3    3    0    0  0.69943724668E+00 -0.50758884038E+01 -0.80475319356E+01  0.95402634033E+01  0.00000000000E+00 0. -1.
</event>
<event>
 7    1  0.9175399E-010  0.4778727E+02  0.7816164E-02  0.1312668E+00
        -11   -1    0    0    0    0  0.00000000000E+00  0.00000000000E+00  0.45593999997E+02  0.45594000000E+02  0.51100000000E-03 0.  1.
         11   -1    0    0    0    0 -0.00000000000E+00 -0.00000000000E+00 -0.45593999997E+02  0.45594000000E+02  0.51100000000E-03 0. -1.
    9900012    2    1    2    0    0 -0.34424537838E+02  0.25443277730E+02 -0.71564138618E+01  0.47787269058E+02  0.19999990941E+02 0.  0.
        -12    1    1    2    0    0  0.34424537838E+02 -0.25443277730E+02  0.71564138618E+01  0.43400730942E+02  0.00000000000E+00 0.  1.
         11    1    3    3    0    0 -0.17489483639E+02  0.13682138784E+02  0.20798499131E+00  0.22206445409E+02  0.51100000000E-03 0. -1.
        -11    1    3    3    0    0  0.19205064994E+01  0.26247432634E+01  0.31007510183E+00  0.32670734983E+01  0.51100000000E-03 0.  1.
        -12    1    3    3    0    0 -0.18855560698E+02  0.91363956822E+01 -0.76744739549E+01  0.22313750151E+02  0.00000000000E+00 0.  1.
</event>
<event>
 7    1  0.9175399E-010  0.4778728E+02  0.7816164E-02  0.1312668E+00
        -11   -1    0    0    0    0  0.00000000000E+00  0.00000000000E+00  0.45593999997E+02  0.45594000000E+02  0.51100000000E-03 0. -1.
         11   -1    0    0    0    0 -0.00000000000E+00 -0.00000000000E+00 -0.45593999997E+02  0.45594000000E+02  0.51100000000E-03 0.  1.
    9900012    2    1    2    0    0 -0.89917153835E+01  0.21174457890E+02 -0.36802363976E+02  0.47787278731E+02  0.20000035044E+02 0.  0.
         12    1    1    2    0    0  0.89917153835E+01 -0.21174457890E+02  0.36802363976E+02  0.43400721269E+02  0.00000000000E+00 0. -1.
         11    1    3    3    0    0 -0.11783359050E+02  0.16165581207E+02 -0.24464348195E+02  0.31601865438E+02  0.51100000000E-03 0. -1.
        -11    1    3    3    0    0 -0.25605582116E+01 -0.69381378300E+00 -0.32610765589E+01  0.42038620939E+01  0.51100000000E-03 0.  1.
         12    1    3    3    0    0  0.53522018781E+01  0.57026904659E+01 -0.90769392219E+01  0.11981551199E+02  0.00000000000E+00 0. -1.
</event>
<event>
 7    1  0.9175399E-010  0.4778727E+02  0.7816164E-02  0.1312668E+00
        -11   -1    0    0    0    0  0.00000000000E+00  0.00000000000E+00  0.45593999997E+02  0.45594000000E+02  0.51100000000E-03 0. -1.
         11   -1    0    0    0    0 -0.00000000000E+00 -0.00000000000E+00 -0.45593999997E+02  0.45594000000E+02  0.51100000000E-03 0.  1.
    9900012    2    1    2    0    0 -0.39717906890E+02  0.79424058130E+01  0.15589403012E+02  0.47787269314E+02  0.19999992110E+02 0.  0.
        -12    1    1    2    0    0  0.39717906890E+02 -0.79424058130E+01 -0.15589403012E+02  0.43400730686E+02  0.00000000000E+00 0.  1.
         11    1    3    3    0    0 -0.52191176341E+01  0.69668892576E+01 -0.69928275214E+00  0.87330253312E+01  0.51100000000E-03 0. -1.
        -11    1    3    3    0    0 -0.29775402054E+02  0.26419569765E+01  0.11221138105E+02  0.31929115941E+02  0.51100000000E-03 0.  1.
         12    1    3    3    0    0 -0.47233872017E+01 -0.16664404210E+01  0.50675476591E+01  0.71251280418E+01  0.00000000000E+00 0. -1.
</event>
<event>
 7    1  0.9175399E-010  0.4778723E+02  0.7816164E-02  0.1312668E+00
        -11   -1    0    0    0    0  0.00000000000E+00  0.00000000000E+00  0.45593999997E+02  0.45594000000E+02  0.51100000000E-03 0. -1.
         11   -1    0    0    0    0 -0.00000000000E+00 -0.00000000000E+00 -0.45593999997E+02  0.45594000000E+02  0.51100000000E-03 0.  1.
    9900012    2    1    2    0    0  0.50252788564E+01 -0.10601014932E+02  0.41785068163E+02  0.47787229655E+02  0.19999811287E+02 0.  0.
        -12    1    1    2    0    0 -0.50252788564E+01  0.10601014932E+02 -0.41785068163E+02  0.43400770345E+02  0.00000000000E+00 0.  1.
         11    1    3    3    0    0  0.33430563183E+01 -0.62589822018E+01  0.42207185519E+02  0.42799502257E+02  0.51100000000E-03 0. -1.
        -11    1    3    3    0    0  0.35655027923E+00 -0.31774190261E+01 -0.40635528681E+00  0.32230799942E+01  0.51100000000E-03 0.  1.
         12    1    3    3    0    0  0.13256722589E+01 -0.11646137036E+01 -0.15762068852E-01  0.17646474037E+01  0.00000000000E+00 0. -1.
</event>
<event>
 7    1  0.9175399E-010  0.4778727E+02  0.7816164E-02  0.1312668E+00
        -11   -1    0    0    0    0  0.00000000000E+00  0.00000000000E+00  0.45593999997E+02  0.45594000000E+02  0.51100000000E-03 0. -1.
         11   -1    0    0    0    0 -0.00000000000E+00 -0.00000000000E+00 -0.45593999997E+02  0.45594000000E+02  0.51100000000E-03 0.  1.
    9900012    2    1    2    0    0  0.54107257173E+01 -0.37603447040E+02  0.20984002503E+02  0.47787267943E+02  0.19999985857E+02 0.  0.
        -12    1    1    2    0    0 -0.54107257173E+01  0.37603447040E+02 -0.20984002503E+02  0.43400732057E+02  0.00000000000E+00 0.  1.
         11    1    3    3    0    0  0.16052314863E+01 -0.14822870415E+01  0.79859918454E+01  0.82794932825E+01  0.51100000000E-03 0. -1.
        -11    1    3    3    0    0 -0.83006796218E+00 -0.25336676429E+02  0.68636882683E+01  0.26263023478E+02  0.51100000000E-03 0.  1.
         12    1    3    3    0    0  0.46355621931E+01 -0.10784483569E+02  0.61343223896E+01  0.13244751182E+02  0.00000000000E+00 0. -1.
</event>
<event>
 7    1  0.9175399E-010  0.4778727E+02  0.7816164E-02  0.1312668E+00
        -11   -1    0    0    0    0  0.00000000000E+00  0.00000000000E+00  0.45593999997E+02  0.45594000000E+02  0.51100000000E-03 0. -1.
         11   -1    0    0    0    0 -0.00000000000E+00 -0.00000000000E+00 -0.45593999997E+02  0.45594000000E+02  0.51100000000E-03 0.  1.
    9900012    2    1    2    0    0  0.19042162219E+02 -0.77622239846E+01  0.38219984894E+02  0.47787270646E+02  0.19999998183E+02 0.  0.
        -12    1    1    2    0    0 -0.19042162219E+02  0.77622239846E+01 -0.38219984894E+02  0.43400729354E+02  0.00000000000E+00 0.  1.
         11    1    3    3    0    0  0.38635039103E+01 -0.47202566164E+00  0.34914991146E+01  0.52287701248E+01  0.51100000000E-03 0. -1.
        -11    1    3    3    0    0  0.14258691427E+02  0.25978687515E+01  0.23057028157E+02  0.27233908110E+02  0.51100000000E-03 0.  1.
        -12    1    3    3    0    0  0.91996688264E+00 -0.98880670745E+01  0.11671457622E+02  0.15324592411E+02  0.00000000000E+00 0.  1.
</event>
<event>
 7    1  0.9175399E-010  0.4778726E+02  0.7816164E-02  0.1312668E+00
        -11   -1    0    0    0    0  0.00000000000E+00  0.00000000000E+00  0.45593999997E+02  0.45594000000E+02  0.51100000000E-03 0. -1.
         11   -1    0    0    0    0 -0.00000000000E+00 -0.00000000000E+00 -0.45593999997E+02  0.45594000000E+02  0.51100000000E-03 0.  1.
    9900012    2    1    2    0    0 -0.25430571593E+01  0.25966783955E+02 -0.34682601364E+02  0.47787264453E+02  0.19999969946E+02 0.  0.
         12    1    1    2    0    0  0.25430571593E+01 -0.25966783955E+02  0.34682601364E+02  0.43400735547E+02  0.00000000000E+00 0. -1.
         11    1    3    3    0    0 -0.72467842618E+01  0.18365850759E+02 -0.27645903303E+02  0.33972287617E+02  0.51100000000E-03 0. -1.
        -11    1    3    3    0    0 -0.66592169275E+00  0.36910302709E+01 -0.60235992855E+01  0.70958371441E+01  0.51100000000E-03 0.  1.
         12    1    3    3    0    0  0.53696487952E+01  0.39099029257E+01 -0.10130987757E+01  0.67191396921E+01  0.00000000000E+00 0. -1.
</event>
<event>
 7    1  0.9175399E-010  0.4778728E+02  0.7816164E-02  0.1312668E+00
        -11   -1    0    0    0    0  0.00000000000E+00  0.00000000000E+00  0.45593999997E+02  0.45594000000E+02  0.51100000000E-03 0. -1.
         11   -1    0    0    0    0 -0.00000000000E+00 -0.00000000000E+00 -0.45593999997E+02  0.45594000000E+02  0.51100000000E-03 0.  1.
    9900012    2    1    2    0    0  0.78664275016E+01  0.15058380892E+02  0.39937287390E+02  0.47787280642E+02  0.20000043758E+02 0.  0.
        -12    1    1    2    0    0 -0.78664275016E+01 -0.15058380892E+02 -0.39937287390E+02  0.43400719358E+02  0.00000000000E+00 0.  1.
         11    1    3    3    0    0  0.19706738938E+01  0.68574774776E+01  0.15219140359E+02  0.16808652131E+02  0.51100000000E-03 0. -1.
        -11    1    3    3    0    0 -0.24171186760E+01  0.11023690673E+01  0.17898328925E+02  0.18094415128E+02  0.51100000000E-03 0.  1.
        -12    1    3    3    0    0  0.83128722838E+01  0.70985343472E+01  0.68198181068E+01  0.12884213383E+02  0.00000000000E+00 0.  1.
</event>
<event>
 7    1  0.9175399E-010  0.4778727E+02  0.7816164E-02  0.1312668E+00
        -11   -1    0    0    0    0  0.00000000000E+00  0.00000000000E+00  0.45593999997E+02  0.45594000000E+02  0.51100000000E-03 0. -1.
         11   -1    0    0    0    0 -0.00000000000E+00 -0.00000000000E+00 -0.45593999997E+02  0.45594000000E+02  0.51100000000E-03 0.  1.
    9900012    2    1    2    0    0  0.13162421680E+02  0.37976781844E+01 -0.41181928859E+02  0.47787274561E+02  0.20000016033E+02 0.  0.
         12    1    1    2    0    0 -0.13162421680E+02 -0.37976781844E+01  0.41181928859E+02  0.43400725439E+02  0.00000000000E+00 0. -1.
         11    1    3    3    0    0 -0.35691507068E+01  0.24349097925E+01 -0.41472452886E+01  0.59889286363E+01  0.51100000000E-03 0. -1.
        -11    1    3    3    0    0  0.80435928921E+01 -0.41154613378E+01 -0.19143247070E+02  0.21168380129E+02  0.51100000000E-03 0.  1.
        -12    1    3    3    0    0  0.86879794947E+01  0.54782297297E+01 -0.17891436501E+02  0.20629965796E+02  0.00000000000E+00 0.  1.
</event>
<event>
 7    1  0.9175399E-010  0.4778727E+02  0.7816164E-02  0.1312668E+00
        -11   -1    0    0    0    0  0.00000000000E+00  0.00000000000E+00  0.45593999997E+02  0.45594000000E+02  0.51100000000E-03 0. -1.
         11   -1    0    0    0    0 -0.00000000000E+00 -0.00000000000E+00 -0.45593999997E+02  0.45594000000E+02  0.51100000000E-03 0.  1.
    9900012    2    1    2    0    0 -0.72062975445E+01  0.27170681773E+01  0.42711943192E+02  0.47787271032E+02  0.19999999941E+02 0.  0.
        -12    1    1    2    0    0  0.72062975445E+01 -0.27170681773E+01 -0.42711943192E+02  0.43400728968E+02  0.00000000000E+00 0.  1.
         11    1    3    3    0    0  0.10292337894E+01 -0.29032018295E+01  0.32850020886E+02  0.32994117287E+02  0.51100000000E-03 0. -1.
        -11    1    3    3    0    0 -0.78694704997E+01  0.42560885410E+01  0.62462537828E+01  0.10911395062E+02  0.51100000000E-03 0.  1.
         12    1    3    3    0    0 -0.36606083419E+00  0.13641814658E+01  0.36156685229E+01  0.38817586831E+01  0.00000000000E+00 0. -1.
</event>
<event>
 7    1  0.9175399E-010  0.4778725E+02  0.7816164E-02  0.1312668E+00
        -11   -1    0    0    0    0  0.00000000000E+00  0.00000000000E+00  0.45593999997E+02  0.45594000000E+02  0.51100000000E-03 0. -1.
         11   -1    0    0    0    0 -0.00000000000E+00 -0.00000000000E+00 -0.45593999997E+02  0.45594000000E+02  0.51100000000E-03 0.  1.
    9900012    2    1    2    0    0 -0.25188548537E+02  0.32556155071E+02  0.13757125025E+02  0.47787254622E+02  0.19999925125E+02 0.  0.
        -12    1    1    2    0    0  0.25188548537E+02 -0.32556155071E+02 -0.13757125025E+02  0.43400745378E+02  0.00000000000E+00 0.  1.
         11    1    3    3    0    0 -0.22938312284E+02  0.26700770357E+02  0.32399418016E+01  0.35349604400E+02  0.51100000000E-03 0.  1.
        -11    1    3    3    0    0 -0.10734715110E+01  0.39396130613E+01  0.84436773467E+01  0.93791566547E+01  0.51100000000E-03 0. -1.
        -12    1    3    3    0    0 -0.11767647418E+01  0.19157716527E+01  0.20735058772E+01  0.30584935681E+01  0.00000000000E+00 0.  1.
</event>
<event>
 7    1  0.9175399E-010  0.4778727E+02  0.7816164E-02  0.1312668E+00
        -11   -1    0    0    0    0  0.00000000000E+00  0.00000000000E+00  0.45593999997E+02  0.45594000000E+02  0.51100000000E-03 0. -1.
         11   -1    0    0    0    0 -0.00000000000E+00 -0.00000000000E+00 -0.45593999997E+02  0.45594000000E+02  0.51100000000E-03 0.  1.
    9900012    2    1    2    0    0 -0.13318517350E+02  0.28493604763E+02  0.29905766272E+02  0.47787271053E+02  0.20000000039E+02 0.  0.
        -12    1    1    2    0    0  0.13318517350E+02 -0.28493604763E+02 -0.29905766272E+02  0.43400728947E+02  0.00000000000E+00 0.  1.
         11    1    3    3    0    0 -0.24488831682E+00  0.11288628912E+02  0.41735355687E+01  0.12037919771E+02  0.51100000000E-03 0. -1.
        -11    1    3    3    0    0 -0.10702881378E+02  0.78111610294E+01  0.21323778046E+02  0.25105167134E+02  0.51100000000E-03 0.  1.
        -12    1    3    3    0    0 -0.23707476561E+01  0.93938148212E+01  0.44084526580E+01  0.10644184148E+02  0.00000000000E+00 0.  1.
</event>
<event>
 7    1  0.9175399E-010  0.4778727E+02  0.7816164E-02  0.1312668E+00
        -11   -1    0    0    0    0  0.00000000000E+00  0.00000000000E+00  0.45593999997E+02  0.45594000000E+02  0.51100000000E-03 0. -1.
         11   -1    0    0    0    0 -0.00000000000E+00 -0.00000000000E+00 -0.45593999997E+02  0.45594000000E+02  0.51100000000E-03 0.  1.
    9900012    2    1    2    0    0  0.22427993835E+02  0.35783687522E+02 -0.10006786359E+02  0.47787274506E+02  0.20000015785E+02 0.  0.
         12    1    1    2    0    0 -0.22427993835E+02 -0.35783687522E+02  0.10006786359E+02  0.43400725494E+02  0.00000000000E+00 0. -1.
         11    1    3    3    0    0  0.19292953645E+02  0.18138788170E+02  0.92127022358E-01  0.26480977782E+02  0.51100000000E-03 0. -1.
        -11    1    3    3    0    0  0.39120887488E+01  0.16141949136E+02 -0.10387422635E+02  0.19589933884E+02  0.51100000000E-03 0.  1.
         12    1    3    3    0    0 -0.77704855860E+00  0.15029502155E+01  0.28850925386E+00  0.17163628411E+01  0.00000000000E+00 0. -1.
</event>
<event>
 7    1  0.9175399E-010  0.4778727E+02  0.7816164E-02  0.1312668E+00
        -11   -1    0    0    0    0  0.00000000000E+00  0.00000000000E+00  0.45593999997E+02  0.45594000000E+02  0.51100000000E-03 0. -1.
         11   -1    0    0    0    0 -0.00000000000E+00 -0.00000000000E+00 -0.45593999997E+02  0.45594000000E+02  0.51100000000E-03 0.  1.
    9900012    2    1    2    0    0 -0.31388343622E+02  0.17185409825E+02  0.24557209264E+02  0.47787274742E+02  0.20000016857E+02 0.  0.
        -12    1    1    2    0    0  0.31388343622E+02 -0.17185409825E+02 -0.24557209264E+02  0.43400725258E+02  0.00000000000E+00 0.  1.
         11    1    3    3    0    0 -0.75518003181E+01  0.33013709560E+01  0.88150398725E+01  0.12067877462E+02  0.51100000000E-03 0. -1.
        -11    1    3    3    0    0 -0.74406203320E+01  0.12376450530E+02  0.12137826054E+02  0.18864415714E+02  0.51100000000E-03 0.  1.
        -12    1    3    3    0    0 -0.16395922971E+02  0.15075883392E+01  0.36043433370E+01  0.16854981566E+02  0.00000000000E+00 0.  1.
</event>
<event>
 7    1  0.1002051E-009  0.4778727E+02  0.7816164E-02  0.1312668E+00
        -11   -1    0    0    0    0  0.00000000000E+00  0.00000000000E+00  0.45593999997E+02  0.45594000000E+02  0.51100000000E-03 0. -1.
         11   -1    0    0    0    0 -0.00000000000E+00 -0.00000000000E+00 -0.45593999997E+02  0.45594000000E+02  0.51100000000E-03 0.  1.
    9900012    2    1    2    0    0  0.26197178628E+01 -0.16005703021E+02 -0.40256400892E+02  0.47787271162E+02  0.20000000538E+02 0.  0.
         12    1    1    2    0    0 -0.26197178628E+01  0.16005703021E+02  0.40256400892E+02  0.43400728838E+02  0.00000000000E+00 0. -1.
         11    1    3    3    0    0  0.38967392886E+01  0.16329621731E+01 -0.10394816033E+01  0.43510532986E+01  0.51100000000E-03 0. -1.
        -11    1    3    3    0    0 -0.10208255017E+01 -0.15442026886E+02 -0.27894745236E+02  0.31900079798E+02  0.51100000000E-03 0.  1.
         12    1    3    3    0    0 -0.25619592412E+00 -0.21966383077E+01 -0.11322174053E+02  0.11536138066E+02  0.00000000000E+00 0. -1.
</event>
<event>
 7    1  0.9175399E-010  0.4778727E+02  0.7816164E-02  0.1312668E+00
        -11   -1    0    0    0    0  0.00000000000E+00  0.00000000000E+00  0.45593999997E+02  0.45594000000E+02  0.51100000000E-03 0. -1.
         11   -1    0    0    0    0 -0.00000000000E+00 -0.00000000000E+00 -0.45593999997E+02  0.45594000000E+02  0.51100000000E-03 0.  1.
    9900012    2    1    2    0    0 -0.29664921354E+01 -0.72283906131E+00 -0.43293192328E+02  0.47787273348E+02  0.20000010505E+02 0.  0.
         12    1    1    2    0    0  0.29664921354E+01  0.72283906131E+00  0.43293192328E+02  0.43400726652E+02  0.00000000000E+00 0. -1.
         11    1    3    3    0    0 -0.61453422727E+01  0.22698743696E+01 -0.41814707222E+01  0.77718890216E+01  0.51100000000E-03 0. -1.
        -11    1    3    3    0    0 -0.17731008236E+00 -0.46078484044E+00 -0.29737597576E+02  0.29741695840E+02  0.51100000000E-03 0.  1.
        -12    1    3    3    0    0  0.33561602197E+01 -0.25319285905E+01 -0.93741240299E+01  0.10273688487E+02  0.00000000000E+00 0.  1.
</event>
<event>
 7    1  0.9175399E-010  0.4778727E+02  0.7816164E-02  0.1312668E+00
        -11   -1    0    0    0    0  0.00000000000E+00  0.00000000000E+00  0.45593999997E+02  0.45594000000E+02  0.51100000000E-03 0. -1.
         11   -1    0    0    0    0 -0.00000000000E+00 -0.00000000000E+00 -0.45593999997E+02  0.45594000000E+02  0.51100000000E-03 0.  1.
    9900012    2    1    2    0    0  0.40234795487E+02 -0.25642696893E+01  0.16068885299E+02  0.47787270493E+02  0.19999997488E+02 0.  0.
        -12    1    1    2    0    0 -0.40234795487E+02  0.25642696893E+01 -0.16068885299E+02  0.43400729507E+02  0.00000000000E+00 0.  1.
         11    1    3    3    0    0  0.15251484634E+02 -0.52817877567E+00  0.62534347916E+01  0.16492186129E+02  0.51100000000E-03 0. -1.
        -11    1    3    3    0    0  0.12114520052E+02  0.53786627969E+01 -0.41354175715E+00  0.13261320696E+02  0.51100000000E-03 0.  1.
        -12    1    3    3    0    0  0.12868790801E+02 -0.74147537105E+01  0.10228992264E+02  0.18033763668E+02  0.00000000000E+00 0.  1.
</event>
<event>
 7    1  0.9175399E-010  0.4778727E+02  0.7816164E-02  0.1312668E+00
        -11   -1    0    0    0    0  0.00000000000E+00  0.00000000000E+00  0.45593999997E+02  0.45594000000E+02  0.51100000000E-03 0.  1.
         11   -1    0    0    0    0 -0.00000000000E+00 -0.00000000000E+00 -0.45593999997E+02  0.45594000000E+02  0.51100000000E-03 0. -1.
    9900012    2    1    2    0    0  0.32932822232E+02 -0.40435402767E+01 -0.27976815017E+02  0.47787272165E+02  0.20000005108E+02 0.  0.
         12    1    1    2    0    0 -0.32932822232E+02  0.40435402767E+01  0.27976815017E+02  0.43400727835E+02  0.00000000000E+00 0. -1.
         11    1    3    3    0    0 -0.14022534682E+00 -0.17587873076E+01 -0.19428546098E+01  0.26244390328E+01  0.51100000000E-03 0. -1.
        -11    1    3    3    0    0  0.15510317396E+02 -0.39903768226E+00 -0.22205557527E+02  0.27089037674E+02  0.51100000000E-03 0.  1.
        -12    1    3    3    0    0  0.17562730183E+02 -0.18857152868E+01 -0.38284028806E+01  0.18073795458E+02  0.00000000000E+00 0.  1.
</event>
<event>
 7    1  0.9175399E-010  0.4778727E+02  0.7816164E-02  0.1312668E+00
        -11   -1    0    0    0    0  0.00000000000E+00  0.00000000000E+00  0.45593999997E+02  0.45594000000E+02  0.51100000000E-03 0. -1.
         11   -1    0    0    0    0 -0.00000000000E+00 -0.00000000000E+00 -0.45593999997E+02  0.45594000000E+02  0.51100000000E-03 0.  1.
    9900012    2    1    2    0    0 -0.24447494131E+02 -0.22320902138E+02  0.28066358035E+02  0.47787273107E+02  0.20000009403E+02 0.  0.
        -12    1    1    2    0    0  0.24447494131E+02  0.22320902138E+02 -0.28066358035E+02  0.43400726893E+02  0.00000000000E+00 0.  1.
         11    1    3    3    0    0 -0.16937483234E+02 -0.10966415633E+02  0.52093915049E+01  0.20839346685E+02  0.51100000000E-03 0. -1.
        -11    1    3    3    0    0 -0.49365729415E+01 -0.87416113904E+01  0.19693174035E+02  0.22104448103E+02  0.51100000000E-03 0.  1.
         12    1    3    3    0    0 -0.25734379552E+01 -0.26128751141E+01  0.31637924957E+01  0.48434783190E+01  0.00000000000E+00 0. -1.
</event>
<event>
 7    1  0.9175399E-010  0.4778726E+02  0.7816164E-02  0.1312668E+00
        -11   -1    0    0    0    0  0.00000000000E+00  0.00000000000E+00  0.45593999997E+02  0.45594000000E+02  0.51100000000E-03 0. -1.
         11   -1    0    0    0    0 -0.00000000000E+00 -0.00000000000E+00 -0.45593999997E+02  0.45594000000E+02  0.51100000000E-03 0.  1.
    9900012    2    1    2    0    0  0.24235921594E+02  0.16518252401E+02  0.31990489589E+02  0.47787262886E+02  0.19999962801E+02 0.  0.
        -12    1    1    2    0    0 -0.24235921594E+02 -0.16518252401E+02 -0.31990489589E+02  0.43400737114E+02  0.00000000000E+00 0.  1.
         11    1    3    3    0    0  0.18489289857E+02  0.16392348860E+02  0.19344443609E+02  0.31381052235E+02  0.51100000000E-03 0. -1.
        -11    1    3    3    0    0  0.41521236650E+01 -0.24854994492E+01  0.18430770585E+01  0.51782981515E+01  0.51100000000E-03 0.  1.
         12    1    3    3    0    0  0.15945080722E+01  0.26114029907E+01  0.10802968921E+02  0.11227912499E+02  0.00000000000E+00 0. -1.
</event>
<event>
 7    1  0.9175399E-010  0.4778727E+02  0.7816164E-02  0.1312668E+00
        -11   -1    0    0    0    0  0.00000000000E+00  0.00000000000E+00  0.45593999997E+02  0.45594000000E+02  0.51100000000E-03 0. -1.
         11   -1    0    0    0    0 -0.00000000000E+00 -0.00000000000E+00 -0.45593999997E+02  0.45594000000E+02  0.51100000000E-03 0.  1.
    9900012    2    1    2    0    0  0.17227511883E+02  0.23276971298E+02  0.32326749421E+02  0.47787270898E+02  0.19999999332E+02 0.  0.
        -12    1    1    2    0    0 -0.17227511883E+02 -0.23276971298E+02 -0.32326749421E+02  0.43400729102E+02  0.00000000000E+00 0.  1.
         11    1    3    3    0    0  0.10175030818E+02  0.14746618421E+02  0.26680248885E+02  0.32137667741E+02  0.51100000000E-03 0. -1.
        -11    1    3    3    0    0  0.85800967905E+01  0.84300139657E+01  0.26979223825E+01  0.12327286069E+02  0.51100000000E-03 0.  1.
        -12    1    3    3    0    0 -0.15276157257E+01  0.10033891118E+00  0.29485781535E+01  0.33223170875E+01  0.00000000000E+00 0.  1.
</event>
<event>
 7    1  0.9175399E-010  0.4778728E+02  0.7816164E-02  0.1312668E+00
        -11   -1    0    0    0    0  0.00000000000E+00  0.00000000000E+00  0.45593999997E+02  0.45594000000E+02  0.51100000000E-03 0. -1.
         11   -1    0    0    0    0 -0.00000000000E+00 -0.00000000000E+00 -0.45593999997E+02  0.45594000000E+02  0.51100000000E-03 0.  1.
    9900012    2    1    2    0    0 -0.27667793987E+02 -0.19937198974E+02  0.26844436386E+02  0.47787280053E+02  0.20000041072E+02 0.  0.
        -12    1    1    2    0    0  0.27667793987E+02  0.19937198974E+02 -0.26844436386E+02  0.43400719947E+02  0.00000000000E+00 0.  1.
         11    1    3    3    0    0 -0.18670104722E+02 -0.40714747247E+01  0.10924801017E+02  0.22011383289E+02  0.51100000000E-03 0. -1.
        -11    1    3    3    0    0  0.93318806861E+00 -0.16648781419E+01  0.48530877968E+01  0.52148941143E+01  0.51100000000E-03 0.  1.
         12    1    3    3    0    0 -0.99308773337E+01 -0.14200846108E+02  0.11066547572E+02  0.20561002650E+02  0.00000000000E+00 0. -1.
</event>
<event>
 7    1  0.9175399E-010  0.4778727E+02  0.7816164E-02  0.1312668E+00
        -11   -1    0    0    0    0  0.00000000000E+00  0.00000000000E+00  0.45593999997E+02  0.45594000000E+02  0.51100000000E-03 0.  1.
         11   -1    0    0    0    0 -0.00000000000E+00 -0.00000000000E+00 -0.45593999997E+02  0.45594000000E+02  0.51100000000E-03 0. -1.
    9900012    2    1    2    0    0 -0.43116750209E+02 -0.44805339917E+01  0.21199120278E+01  0.47787270047E+02  0.19999995451E+02 0.  0.
        -12    1    1    2    0    0  0.43116750209E+02  0.44805339917E+01 -0.21199120278E+01  0.43400729953E+02  0.00000000000E+00 0.  1.
         11    1    3    3    0    0 -0.22288613923E+02 -0.94855373085E+01  0.42993308657E+01  0.24601666098E+02  0.51100000000E-03 0. -1.
        -11    1    3    3    0    0 -0.14820114778E+02  0.32325444756E+01  0.24914891373E+01  0.15371813953E+02  0.51100000000E-03 0.  1.
         12    1    3    3    0    0 -0.60080215080E+01  0.17724588412E+01 -0.46709079752E+01  0.78137899957E+01  0.00000000000E+00 0. -1.
</event>
<event>
 7    1  0.9175399E-010  0.4778727E+02  0.7816164E-02  0.1312668E+00
        -11   -1    0    0    0    0  0.00000000000E+00  0.00000000000E+00  0.45593999997E+02  0.45594000000E+02  0.51100000000E-03 0. -1.
         11   -1    0    0    0    0 -0.00000000000E+00 -0.00000000000E+00 -0.45593999997E+02  0.45594000000E+02  0.51100000000E-03 0.  1.
    9900012    2    1    2    0    0  0.23252177759E+02 -0.69000245975E+01  0.35990963661E+02  0.47787267573E+02  0.19999984173E+02 0.  0.
        -12    1    1    2    0    0 -0.23252177759E+02  0.69000245975E+01 -0.35990963661E+02  0.43400732427E+02  0.00000000000E+00 0.  1.
         11    1    3    3    0    0  0.11909422860E+02 -0.47809114031E+01  0.28033568035E+02  0.30831354232E+02  0.51100000000E-03 0. -1.
        -11    1    3    3    0    0  0.74884001758E+01  0.30592211032E+01  0.23993741409E+01  0.84375332580E+01  0.51100000000E-03 0.  1.
        -12    1    3    3    0    0  0.38543547232E+01 -0.51783342976E+01  0.55580214841E+01  0.85183800836E+01  0.00000000000E+00 0.  1.
</event>
<event>
 7    1  0.9175399E-010  0.4778727E+02  0.7816164E-02  0.1312668E+00
        -11   -1    0    0    0    0  0.00000000000E+00  0.00000000000E+00  0.45593999997E+02  0.45594000000E+02  0.51100000000E-03 0.  1.
         11   -1    0    0    0    0 -0.00000000000E+00 -0.00000000000E+00 -0.45593999997E+02  0.45594000000E+02  0.51100000000E-03 0. -1.
    9900012    2    1    2    0    0 -0.15436060245E+02  0.37152034120E+02 -0.16281214157E+02  0.47787268099E+02  0.19999986569E+02 0.  0.
         12    1    1    2    0    0  0.15436060245E+02 -0.37152034120E+02  0.16281214157E+02  0.43400731901E+02  0.00000000000E+00 0. -1.
         11    1    3    3    0    0 -0.24145224545E+01  0.22322523432E+02 -0.17894569617E+01  0.22523923449E+02  0.51100000000E-03 0. -1.
        -11    1    3    3    0    0 -0.76288856629E+01  0.42613603237E+01 -0.73241058592E+01  0.11401825080E+02  0.51100000000E-03 0.  1.
         12    1    3    3    0    0 -0.53926521274E+01  0.10568150365E+02 -0.71676513362E+01  0.13861519569E+02  0.00000000000E+00 0. -1.
</event>
<event>
 7    1  0.9175399E-010  0.4778727E+02  0.7816164E-02  0.1312668E+00
        -11   -1    0    0    0    0  0.00000000000E+00  0.00000000000E+00  0.45593999997E+02  0.45594000000E+02  0.51100000000E-03 0.  1.
         11   -1    0    0    0    0 -0.00000000000E+00 -0.00000000000E+00 -0.45593999997E+02  0.45594000000E+02  0.51100000000E-03 0. -1.
    9900012    2    1    2    0    0 -0.20725275776E+02 -0.36788843352E+02  0.10033301056E+02  0.47787272111E+02  0.20000004864E+02 0.  0.
        -12    1    1    2    0    0  0.20725275776E+02  0.36788843352E+02 -0.10033301056E+02  0.43400727889E+02  0.00000000000E+00 0.  1.
         11    1    3    3    0    0 -0.11209058165E+02 -0.18957746046E+02 -0.39084909299E+01  0.22367731707E+02  0.51100000000E-03 0. -1.
        -11    1    3    3    0    0 -0.93789975294E+01 -0.11156769753E+02  0.93301058551E+01  0.17305778847E+02  0.51100000000E-03 0.  1.
         12    1    3    3    0    0 -0.13722008123E+00 -0.66743275533E+01  0.46116861305E+01  0.81137615571E+01  0.00000000000E+00 0. -1.
</event>
<event>
 7    1  0.9175399E-010  0.4778727E+02  0.7816164E-02  0.1312668E+00
        -11   -1    0    0    0    0  0.00000000000E+00  0.00000000000E+00  0.45593999997E+02  0.45594000000E+02  0.51100000000E-03 0. -1.
         11   -1    0    0    0    0 -0.00000000000E+00 -0.00000000000E+00 -0.45593999997E+02  0.45594000000E+02  0.51100000000E-03 0.  1.
    9900012    2    1    2    0    0  0.25956661717E+02 -0.55114647537E+01 -0.34343832701E+02  0.47787269869E+02  0.19999994642E+02 0.  0.
         12    1    1    2    0    0 -0.25956661717E+02  0.55114647537E+01  0.34343832701E+02  0.43400730131E+02  0.00000000000E+00 0. -1.
         11    1    3    3    0    0  0.91072997533E+01 -0.19187604833E+01 -0.27943529203E+01  0.97176622236E+01  0.51100000000E-03 0. -1.
        -11    1    3    3    0    0  0.35572860909E+01  0.16051992670E+01 -0.17901879548E+02  0.18322342662E+02  0.51100000000E-03 0.  1.
        -12    1    3    3    0    0  0.13292075873E+02 -0.51979035374E+01 -0.13647600233E+02  0.19747264983E+02  0.00000000000E+00 0.  1.
</event>
<event>
 7    1  0.9175399E-010  0.4778727E+02  0.7816164E-02  0.1312668E+00
        -11   -1    0    0    0    0  0.00000000000E+00  0.00000000000E+00  0.45593999997E+02  0.45594000000E+02  0.51100000000E-03 0. -1.
         11   -1    0    0    0    0 -0.00000000000E+00 -0.00000000000E+00 -0.45593999997E+02  0.45594000000E+02  0.51100000000E-03 0.  1.
    9900012    2    1    2    0    0 -0.16335725646E+02  0.37298262892E+02  0.15020206515E+02  0.47787274766E+02  0.20000016967E+02 0.  0.
        -12    1    1    2    0    0  0.16335725646E+02 -0.37298262892E+02 -0.15020206515E+02  0.43400725234E+02  0.00000000000E+00 0.  1.
         11    1    3    3    0    0 -0.61633705657E+01  0.23214112377E+02  0.21407598748E+01  0.24113585450E+02  0.51100000000E-03 0. -1.
        -11    1    3    3    0    0 -0.85115858891E+01  0.37227935916E+01  0.71097368530E+01  0.11698488999E+02  0.51100000000E-03 0.  1.
         12    1    3    3    0    0 -0.16607691907E+01  0.10361356924E+02  0.57697097869E+01  0.11975200317E+02  0.00000000000E+00 0. -1.
</event>
<event>
 7    1  0.9175399E-010  0.4778727E+02  0.7816164E-02  0.1312668E+00
        -11   -1    0    0    0    0  0.00000000000E+00  0.00000000000E+00  0.45593999997E+02  0.45594000000E+02  0.51100000000E-03 0. -1.
         11   -1    0    0    0    0 -0.00000000000E+00 -0.00000000000E+00 -0.45593999997E+02  0.45594000000E+02  0.51100000000E-03 0.  1.
    9900012    2    1    2    0    0  0.32401522737E+01  0.34088174249E+02 -0.26666854137E+02  0.47787270514E+02  0.19999997580E+02 0.  0.
         12    1    1    2    0    0 -0.32401522737E+01 -0.34088174249E+02  0.26666854137E+02  0.43400729486E+02  0.00000000000E+00 0. -1.
         11    1    3    3    0    0  0.97297611246E+00  0.70416104056E+01 -0.91077269180E+01  0.11553425877E+02  0.51100000000E-03 0.  1.
        -11    1    3    3    0    0  0.34258353717E+01  0.50647705666E+01 -0.12096124554E+02  0.13553762517E+02  0.51100000000E-03 0. -1.
        -12    1    3    3    0    0 -0.11586592105E+01  0.21981793276E+02 -0.54630026651E+01  0.22680082119E+02  0.00000000000E+00 0.  1.
</event>
<event>
 7    1  0.9175399E-010  0.4778727E+02  0.7816164E-02  0.1312668E+00
        -11   -1    0    0    0    0  0.00000000000E+00  0.00000000000E+00  0.45593999997E+02  0.45594000000E+02  0.51100000000E-03 0. -1.
         11   -1    0    0    0    0 -0.00000000000E+00 -0.00000000000E+00 -0.45593999997E+02  0.45594000000E+02  0.51100000000E-03 0.  1.
    9900012    2    1    2    0    0 -0.20830514830E+02 -0.31605606526E+02  0.21232014613E+02  0.47787272397E+02  0.20000006165E+02 0.  0.
        -12    1    1    2    0    0  0.20830514830E+02  0.31605606526E+02 -0.21232014613E+02  0.43400727603E+02  0.00000000000E+00 0.  1.
         11    1    3    3    0    0 -0.61136439063E+01  0.28921703163E+00  0.34646074489E+01  0.70330500738E+01  0.51100000000E-03 0. -1.
        -11    1    3    3    0    0 -0.48488865015E+01 -0.19471827937E+02  0.13941339871E+02  0.24434089735E+02  0.51100000000E-03 0.  1.
         12    1    3    3    0    0 -0.98679844225E+01 -0.12422995621E+02  0.38260672933E+01  0.16320132588E+02  0.00000000000E+00 0. -1.
</event>
<event>
 7    1  0.9175399E-010  0.4778727E+02  0.7816164E-02  0.1312668E+00
        -11   -1    0    0    0    0  0.00000000000E+00  0.00000000000E+00  0.45593999997E+02  0.45594000000E+02  0.51100000000E-03 0. -1.
         11   -1    0    0    0    0 -0.00000000000E+00 -0.00000000000E+00 -0.45593999997E+02  0.45594000000E+02  0.51100000000E-03 0.  1.
    9900012    2    1    2    0    0 -0.43097869154E+02 -0.11671880414E-02 -0.51183239992E+01  0.47787267661E+02  0.19999984575E+02 0.  0.
        -12    1    1    2    0    0  0.43097869154E+02  0.11671880414E-02  0.51183239992E+01  0.43400732339E+02  0.00000000000E+00 0.  1.
         11    1    3    3    0    0 -0.35030425870E+01 -0.42134710400E+01 -0.46108667272E+01  0.71613363144E+01  0.51100000000E-03 0. -1.
        -11    1    3    3    0    0 -0.16409583738E+02  0.53602429973E+01 -0.19202206296E+01  0.17369337666E+02  0.51100000000E-03 0.  1.
         12    1    3    3    0    0 -0.23185242829E+02 -0.11479391454E+01  0.14127633576E+01  0.23256593681E+02  0.00000000000E+00 0. -1.
</event>
<event>
 7    1  0.9175399E-010  0.4778728E+02  0.7816164E-02  0.1312668E+00
        -11   -1    0    0    0    0  0.00000000000E+00  0.00000000000E+00  0.45593999997E+02  0.45594000000E+02  0.51100000000E-03 0. -1.
         11   -1    0    0    0    0 -0.00000000000E+00 -0.00000000000E+00 -0.45593999997E+02  0.45594000000E+02  0.51100000000E-03 0.  1.
    9900012    2    1    2    0    0  0.29576054140E+02 -0.29866039362E+02 -0.10812011221E+02  0.47787275670E+02  0.20000021091E+02 0.  0.
         12    1    1    2    0    0 -0.29576054140E+02  0.29866039362E+02  0.10812011221E+02  0.43400724330E+02  0.00000000000E+00 0. -1.
         11    1    3    3    0    0  0.16862157035E+02 -0.11001927904E+02 -0.76299678051E+01  0.21531167326E+02  0.51100000000E-03 0. -1.
        -11    1    3    3    0    0  0.44797553836E+01  0.40085326189E+00 -0.28072868293E+01  0.53018629969E+01  0.51100000000E-03 0.  1.
         12    1    3    3    0    0  0.82341417219E+01 -0.19264964720E+02 -0.37475658699E+00  0.20954245347E+02  0.00000000000E+00 0. -1.
</event>
<event>
 7    1  0.9175399E-010  0.4778727E+02  0.7816164E-02  0.1312668E+00
        -11   -1    0    0    0    0  0.00000000000E+00  0.00000000000E+00  0.45593999997E+02  0.45594000000E+02  0.51100000000E-03 0. -1.
         11   -1    0    0    0    0 -0.00000000000E+00 -0.00000000000E+00 -0.45593999997E+02  0.45594000000E+02  0.51100000000E-03 0.  1.
    9900012    2    1    2    0    0  0.15653789723E+02 -0.77200202072E+00  0.40472042557E+02  0.47787270185E+02  0.19999996080E+02 0.  0.
        -12    1    1    2    0    0 -0.15653789723E+02  0.77200202072E+00 -0.40472042557E+02  0.43400729815E+02  0.00000000000E+00 0.  1.
         11    1    3    3    0    0 -0.32000921754E+01  0.17867072229E+01  0.61485072886E+01  0.71580063405E+01  0.51100000000E-03 0. -1.
        -11    1    3    3    0    0  0.10334402828E+02  0.90343137216E+00  0.91640703710E+01  0.13841829940E+02  0.51100000000E-03 0.  1.
         12    1    3    3    0    0  0.85194790701E+01 -0.34621406158E+01  0.25159464897E+02  0.26787433904E+02  0.00000000000E+00 0. -1.
</event>
<event>
 7    1  0.9175399E-010  0.4778727E+02  0.7816164E-02  0.1312668E+00
        -11   -1    0    0    0    0  0.00000000000E+00  0.00000000000E+00  0.45593999997E+02  0.45594000000E+02  0.51100000000E-03 0. -1.
         11   -1    0    0    0    0 -0.00000000000E+00 -0.00000000000E+00 -0.45593999997E+02  0.45594000000E+02  0.51100000000E-03 0.  1.
    9900012    2    1    2    0    0  0.28380086933E+02  0.13688897746E+02 -0.29846402977E+02  0.47787273895E+02  0.20000012995E+02 0.  0.
         12    1    1    2    0    0 -0.28380086933E+02 -0.13688897746E+02  0.29846402977E+02  0.43400726105E+02  0.00000000000E+00 0. -1.
         11    1    3    3    0    0  0.86518183090E+01 -0.18883435523E+01 -0.17373197341E+02  0.19499943270E+02  0.51100000000E-03 0. -1.
        -11    1    3    3    0    0  0.15776954700E+02  0.12974892458E+02 -0.11552023829E+02  0.23467198144E+02  0.51100000000E-03 0.  1.
         12    1    3    3    0    0  0.39513139243E+01  0.26023488395E+01 -0.92118180679E+00  0.48201324807E+01  0.00000000000E+00 0. -1.
</event>
<event>
 7    1  0.9175399E-010  0.4778727E+02  0.7816164E-02  0.1312668E+00
        -11   -1    0    0    0    0  0.00000000000E+00  0.00000000000E+00  0.45593999997E+02  0.45594000000E+02  0.51100000000E-03 0. -1.
         11   -1    0    0    0    0 -0.00000000000E+00 -0.00000000000E+00 -0.45593999997E+02  0.45594000000E+02  0.51100000000E-03 0.  1.
    9900012    2    1    2    0    0 -0.21685359963E+02  0.10203586446E+02  0.36183633537E+02  0.47787270178E+02  0.19999996051E+02 0.  0.
        -12    1    1    2    0    0  0.21685359963E+02 -0.10203586446E+02 -0.36183633537E+02  0.43400729822E+02  0.00000000000E+00 0.  1.
         11    1    3    3    0    0 -0.97007667835E+01  0.35603724568E+01  0.21729995440E+02  0.24061875037E+02  0.51100000000E-03 0. -1.
        -11    1    3    3    0    0 -0.13362519357E+02  0.40800323822E+01  0.68025520595E+01  0.15539572149E+02  0.51100000000E-03 0.  1.
        -12    1    3    3    0    0  0.13779261769E+01  0.25631816069E+01  0.76510860376E+01  0.81858229918E+01  0.00000000000E+00 0.  1.
</event>
<event>
 7    1  0.9175399E-010  0.4778727E+02  0.7816164E-02  0.1312668E+00
        -11   -1    0    0    0    0  0.00000000000E+00  0.00000000000E+00  0.45593999997E+02  0.45594000000E+02  0.51100000000E-03 0. -1.
         11   -1    0    0    0    0 -0.00000000000E+00 -0.00000000000E+00 -0.45593999997E+02  0.45594000000E+02  0.51100000000E-03 0.  1.
    9900012    2    1    2    0    0 -0.15983843818E+02 -0.35341584847E+02  0.19470816313E+02  0.47787267625E+02  0.19999984411E+02 0.  0.
        -12    1    1    2    0    0  0.15983843818E+02  0.35341584847E+02 -0.19470816313E+02  0.43400732375E+02  0.00000000000E+00 0.  1.
         11    1    3    3    0    0 -0.14971258160E+02 -0.16039794690E+02  0.15296607039E+02  0.26746958177E+02  0.51100000000E-03 0. -1.
        -11    1    3    3    0    0  0.10911718575E+01 -0.14858163503E+02  0.56085259929E+01  0.15918895778E+02  0.51100000000E-03 0.  1.
         12    1    3    3    0    0 -0.21037575163E+01 -0.44436266550E+01 -0.14343167185E+01  0.51214136706E+01  0.00000000000E+00 0. -1.
</event>
<event>
 7    1  0.9175399E-010  0.4778727E+02  0.7816164E-02  0.1312668E+00
        -11   -1    0    0    0    0  0.00000000000E+00  0.00000000000E+00  0.45593999997E+02  0.45594000000E+02  0.51100000000E-03 0. -1.
         11   -1    0    0    0    0 -0.00000000000E+00 -0.00000000000E+00 -0.45593999997E+02  0.45594000000E+02  0.51100000000E-03 0.  1.
    9900012    2    1    2    0    0 -0.23892465649E+02  0.24439403885E+02  0.26748626138E+02  0.47787269853E+02  0.19999994568E+02 0.  0.
        -12    1    1    2    0    0  0.23892465649E+02 -0.24439403885E+02 -0.26748626138E+02  0.43400730147E+02  0.00000000000E+00 0.  1.
         11    1    3    3    0    0 -0.12505747074E+02  0.11806876759E+02  0.23192771675E+02  0.28873875856E+02  0.51100000000E-03 0. -1.
        -11    1    3    3    0    0 -0.30519677488E+01  0.84047079309E+01  0.79428314508E-01  0.89420317413E+01  0.51100000000E-03 0.  1.
         12    1    3    3    0    0 -0.83347508264E+01  0.42278191945E+01  0.34764261481E+01  0.99713622561E+01  0.00000000000E+00 0. -1.
</event>
<event>
 7    1  0.9175399E-010  0.4778727E+02  0.7816164E-02  0.1312668E+00
        -11   -1    0    0    0    0  0.00000000000E+00  0.00000000000E+00  0.45593999997E+02  0.45594000000E+02  0.51100000000E-03 0. -1.
         11   -1    0    0    0    0 -0.00000000000E+00 -0.00000000000E+00 -0.45593999997E+02  0.45594000000E+02  0.51100000000E-03 0.  1.
    9900012    2    1    2    0    0  0.18185988588E+02  0.33474628809E+02  0.20792837503E+02  0.47787273667E+02  0.20000011956E+02 0.  0.
        -12    1    1    2    0    0 -0.18185988588E+02 -0.33474628809E+02 -0.20792837503E+02  0.43400726333E+02  0.00000000000E+00 0.  1.
         11    1    3    3    0    0  0.20736223648E+01  0.16519446618E+02  0.94335721548E+01  0.19135942886E+02  0.51100000000E-03 0. -1.
        -11    1    3    3    0    0  0.16847322909E+02  0.17428133189E+02  0.12452759469E+02  0.27251483158E+02  0.51100000000E-03 0.  1.
        -12    1    3    3    0    0 -0.73495668523E+00 -0.47295099847E+00 -0.10934941203E+01  0.13998476229E+01  0.00000000000E+00 0.  1.
</event>
<event>
 7    1  0.9175399E-010  0.4778727E+02  0.7816164E-02  0.1312668E+00
        -11   -1    0    0    0    0  0.00000000000E+00  0.00000000000E+00  0.45593999997E+02  0.45594000000E+02  0.51100000000E-03 0. -1.
         11   -1    0    0    0    0 -0.00000000000E+00 -0.00000000000E+00 -0.45593999997E+02  0.45594000000E+02  0.51100000000E-03 0.  1.
    9900012    2    1    2    0    0 -0.24853904592E+02 -0.18198860769E+02 -0.30572993793E+02  0.47787273552E+02  0.20000011434E+02 0.  0.
         12    1    1    2    0    0  0.24853904592E+02  0.18198860769E+02  0.30572993793E+02  0.43400726448E+02  0.00000000000E+00 0. -1.
         11    1    3    3    0    0 -0.26359011377E+02 -0.15226496997E+02 -0.24605364516E+02  0.39141635822E+02  0.51100000000E-03 0.  1.
        -11    1    3    3    0    0  0.27212758512E+01 -0.10419111277E+00 -0.12602517026E+01  0.30007386859E+01  0.51100000000E-03 0. -1.
        -12    1    3    3    0    0 -0.12161690660E+01 -0.28681726591E+01 -0.47073775740E+01  0.56448990446E+01  0.00000000000E+00 0.  1.
</event>
<event>
 7    1  0.9175399E-010  0.4778723E+02  0.7816164E-02  0.1312668E+00
        -11   -1    0    0    0    0  0.00000000000E+00  0.00000000000E+00  0.45593999997E+02  0.45594000000E+02  0.51100000000E-03 0. -1.
         11   -1    0    0    0    0 -0.00000000000E+00 -0.00000000000E+00 -0.45593999997E+02  0.45594000000E+02  0.51100000000E-03 0.  1.
    9900012    2    1    2    0    0  0.12974897739E+02  0.35865481431E+02 -0.20711010207E+02  0.47787231880E+02  0.19999821433E+02 0.  0.
         12    1    1    2    0    0 -0.12974897739E+02 -0.35865481431E+02  0.20711010207E+02  0.43400768120E+02  0.00000000000E+00 0. -1.
         11    1    3    3    0    0 -0.11753050060E+01  0.18238061017E+02 -0.60648305029E+01  0.19255918072E+02  0.51100000000E-03 0. -1.
        -11    1    3    3    0    0  0.10189725174E+02  0.17713719739E+02 -0.13128232226E+02  0.24289027312E+02  0.51100000000E-03 0.  1.
        -12    1    3    3    0    0  0.39604775716E+01 -0.86299324966E-01 -0.15179474777E+01  0.42422864960E+01  0.00000000000E+00 0.  1.
</event>
<event>
 7    1  0.9175399E-010  0.4778727E+02  0.7816164E-02  0.1312668E+00
        -11   -1    0    0    0    0  0.00000000000E+00  0.00000000000E+00  0.45593999997E+02  0.45594000000E+02  0.51100000000E-03 0. -1.
         11   -1    0    0    0    0 -0.00000000000E+00 -0.00000000000E+00 -0.45593999997E+02  0.45594000000E+02  0.51100000000E-03 0.  1.
    9900012    2    1    2    0    0 -0.12688161914E+02 -0.35715124134E+02 -0.21143887877E+02  0.47787267987E+02  0.19999986062E+02 0.  0.
         12    1    1    2    0    0  0.12688161914E+02  0.35715124134E+02  0.21143887877E+02  0.43400732013E+02  0.00000000000E+00 0. -1.
         11    1    3    3    0    0 -0.27183074210E+01 -0.57633782210E+01 -0.11211268461E+02  0.12895668441E+02  0.51100000000E-03 0. -1.
        -11    1    3    3    0    0 -0.92456787900E+01 -0.29768495943E+02 -0.11444084404E+02  0.33205616921E+02  0.51100000000E-03 0.  1.
        -12    1    3    3    0    0 -0.72417570314E+00 -0.18324997017E+00  0.15114649892E+01  0.16859826257E+01  0.00000000000E+00 0.  1.
</event>
<event>
 7    1  0.9175399E-010  0.4778727E+02  0.7816164E-02  0.1312668E+00
        -11   -1    0    0    0    0  0.00000000000E+00  0.00000000000E+00  0.45593999997E+02  0.45594000000E+02  0.51100000000E-03 0. -1.
         11   -1    0    0    0    0 -0.00000000000E+00 -0.00000000000E+00 -0.45593999997E+02  0.45594000000E+02  0.51100000000E-03 0.  1.
    9900012    2    1    2    0    0  0.16531737535E+02  0.11076195048E+02 -0.38569976131E+02  0.47787268423E+02  0.19999988049E+02 0.  0.
         12    1    1    2    0    0 -0.16531737535E+02 -0.11076195048E+02  0.38569976131E+02  0.43400731577E+02  0.00000000000E+00 0. -1.
         11    1    3    3    0    0 -0.23437736302E+01 -0.38167162679E+00  0.43152166392E+00  0.24135366721E+01  0.51100000000E-03 0. -1.
        -11    1    3    3    0    0  0.17372115274E+02  0.12421086055E+02 -0.35159997926E+02  0.41137564613E+02  0.51100000000E-03 0.  1.
        -12    1    3    3    0    0  0.15033958907E+01 -0.96321938055E+00 -0.38414998685E+01  0.42361671377E+01  0.00000000000E+00 0.  1.
</event>
<event>
 7    1  0.9175399E-010  0.4778727E+02  0.7816164E-02  0.1312668E+00
        -11   -1    0    0    0    0  0.00000000000E+00  0.00000000000E+00  0.45593999997E+02  0.45594000000E+02  0.51100000000E-03 0. -1.
         11   -1    0    0    0    0 -0.00000000000E+00 -0.00000000000E+00 -0.45593999997E+02  0.45594000000E+02  0.51100000000E-03 0.  1.
    9900012    2    1    2    0    0  0.33170713305E+02  0.17254132350E+01  0.27934743415E+02  0.47787272337E+02  0.20000005894E+02 0.  0.
        -12    1    1    2    0    0 -0.33170713305E+02 -0.17254132350E+01 -0.27934743415E+02  0.43400727663E+02  0.00000000000E+00 0.  1.
         11    1    3    3    0    0  0.88589013739E+01  0.44700638572E+01  0.16184644494E+02  0.18984317794E+02  0.51100000000E-03 0. -1.
        -11    1    3    3    0    0 -0.80601963846E+00  0.17963537148E+00  0.10724929747E+01  0.13535796859E+01  0.51100000000E-03 0.  1.
        -12    1    3    3    0    0  0.25117831569E+02 -0.29242859937E+01  0.10677605947E+02  0.27449374858E+02  0.00000000000E+00 0.  1.
</event>
<event>
 7    1  0.9175399E-010  0.4778727E+02  0.7816164E-02  0.1312668E+00
        -11   -1    0    0    0    0  0.00000000000E+00  0.00000000000E+00  0.45593999997E+02  0.45594000000E+02  0.51100000000E-03 0. -1.
         11   -1    0    0    0    0 -0.00000000000E+00 -0.00000000000E+00 -0.45593999997E+02  0.45594000000E+02  0.51100000000E-03 0.  1.
    9900012    2    1    2    0    0  0.66079784036E+01  0.17930023146E+01  0.42857241637E+02  0.47787269631E+02  0.19999993554E+02 0.  0.
        -12    1    1    2    0    0 -0.66079784036E+01 -0.17930023146E+01 -0.42857241637E+02  0.43400730369E+02  0.00000000000E+00 0.  1.
         11    1    3    3    0    0 -0.39141537736E+01 -0.44276315254E+01  0.69575835529E+01  0.91286630919E+01  0.51100000000E-03 0. -1.
        -11    1    3    3    0    0  0.88762360099E+01  0.40823074144E+01  0.17332929609E+02  0.19896815037E+02  0.51100000000E-03 0.  1.
         12    1    3    3    0    0  0.16458961674E+01  0.21383264256E+01  0.18566728475E+02  0.18761791502E+02  0.00000000000E+00 0. -1.
</event>
<event>
 7    1  0.9175399E-010  0.4778727E+02  0.7816164E-02  0.1312668E+00
        -11   -1    0    0    0    0  0.00000000000E+00  0.00000000000E+00  0.45593999997E+02  0.45594000000E+02  0.51100000000E-03 0. -1.
         11   -1    0    0    0    0 -0.00000000000E+00 -0.00000000000E+00 -0.45593999997E+02  0.45594000000E+02  0.51100000000E-03 0.  1.
    9900012    2    1    2    0    0 -0.20916434189E+02  0.87744677116E+01  0.37001821949E+02  0.47787270393E+02  0.19999997032E+02 0.  0.
        -12    1    1    2    0    0  0.20916434189E+02 -0.87744677116E+01 -0.37001821949E+02  0.43400729607E+02  0.00000000000E+00 0.  1.
         11    1    3    3    0    0 -0.88105137394E+01  0.11594075406E+02  0.21155746244E+02  0.25682938622E+02  0.51100000000E-03 0. -1.
        -11    1    3    3    0    0 -0.11147722314E+02 -0.52314060977E+00  0.76281021585E+01  0.13517889321E+02  0.51100000000E-03 0.  1.
         12    1    3    3    0    0 -0.95819813584E+00 -0.22964670848E+01  0.82179735471E+01  0.85864424508E+01  0.00000000000E+00 0. -1.
</event>
<event>
 7    1  0.9175399E-010  0.4778727E+02  0.7816164E-02  0.1312668E+00
        -11   -1    0    0    0    0  0.00000000000E+00  0.00000000000E+00  0.45593999997E+02  0.45594000000E+02  0.51100000000E-03 0. -1.
         11   -1    0    0    0    0 -0.00000000000E+00 -0.00000000000E+00 -0.45593999997E+02  0.45594000000E+02  0.51100000000E-03 0.  1.
    9900012    2    1    2    0    0  0.33265508488E+02 -0.16005170184E+02  0.22822442882E+02  0.47787269284E+02  0.19999991974E+02 0.  0.
        -12    1    1    2    0    0 -0.33265508488E+02  0.16005170184E+02 -0.22822442882E+02  0.43400730716E+02  0.00000000000E+00 0.  1.
         11    1    3    3    0    0  0.29722377064E+02 -0.13897419221E+02  0.19238895300E+02  0.38035418388E+02  0.51100000000E-03 0. -1.
        -11    1    3    3    0    0  0.29327342881E+01  0.15186311607E+01 -0.13759142661E+01  0.35777522742E+01  0.51100000000E-03 0.  1.
         12    1    3    3    0    0  0.61039713601E+00 -0.36263821230E+01  0.49594618487E+01  0.61740986220E+01  0.00000000000E+00 0. -1.
</event>
<event>
 7    1  0.9175399E-010  0.4778727E+02  0.7816164E-02  0.1312668E+00
        -11   -1    0    0    0    0  0.00000000000E+00  0.00000000000E+00  0.45593999997E+02  0.45594000000E+02  0.51100000000E-03 0. -1.
         11   -1    0    0    0    0 -0.00000000000E+00 -0.00000000000E+00 -0.45593999997E+02  0.45594000000E+02  0.51100000000E-03 0.  1.
    9900012    2    1    2    0    0  0.63994642363E+01 -0.16878081903E+02  0.39468977597E+02  0.47787274386E+02  0.20000015235E+02 0.  0.
        -12    1    1    2    0    0 -0.63994642363E+01  0.16878081903E+02 -0.39468977597E+02  0.43400725614E+02  0.00000000000E+00 0.  1.
         11    1    3    3    0    0 -0.91378348802E+00 -0.29088438854E+01  0.62309404653E+01  0.69369296058E+01  0.51100000000E-03 0. -1.
        -11    1    3    3    0    0  0.79398146488E+01  0.16228791737E+01  0.12498373787E+02  0.14895762520E+02  0.51100000000E-03 0.  1.
        -12    1    3    3    0    0 -0.62656692454E+00 -0.15592117192E+02  0.20739663345E+02  0.25954582260E+02  0.00000000000E+00 0.  1.
</event>
<event>
 7    1  0.9175399E-010  0.4778727E+02  0.7816164E-02  0.1312668E+00
        -11   -1    0    0    0    0  0.00000000000E+00  0.00000000000E+00  0.45593999997E+02  0.45594000000E+02  0.51100000000E-03 0. -1.
         11   -1    0    0    0    0 -0.00000000000E+00 -0.00000000000E+00 -0.45593999997E+02  0.45594000000E+02  0.51100000000E-03 0.  1.
    9900012    2    1    2    0    0  0.16272080985E+02  0.85588969180E+01  0.39313965237E+02  0.47787271911E+02  0.20000003949E+02 0.  0.
        -12    1    1    2    0    0 -0.16272080985E+02 -0.85588969180E+01 -0.39313965237E+02  0.43400728089E+02  0.00000000000E+00 0.  1.
         11    1    3    3    0    0  0.12581228433E+02  0.35895222443E+01  0.14079025414E+02  0.19219545668E+02  0.51100000000E-03 0. -1.
        -11    1    3    3    0    0 -0.39395723236E+01 -0.46071263399E+00  0.87788067019E+01  0.96332722163E+01  0.51100000000E-03 0.  1.
         12    1    3    3    0    0  0.76304248756E+01  0.54300873077E+01  0.16456133121E+02  0.18934454026E+02  0.00000000000E+00 0. -1.
</event>
<event>
 7    1  0.9175399E-010  0.4778727E+02  0.7816164E-02  0.1312668E+00
        -11   -1    0    0    0    0  0.00000000000E+00  0.00000000000E+00  0.45593999997E+02  0.45594000000E+02  0.51100000000E-03 0. -1.
         11   -1    0    0    0    0 -0.00000000000E+00 -0.00000000000E+00 -0.45593999997E+02  0.45594000000E+02  0.51100000000E-03 0.  1.
    9900012    2    1    2    0    0 -0.30534096864E+02 -0.12069813706E+02  0.28383305012E+02  0.47787268697E+02  0.19999989299E+02 0.  0.
        -12    1    1    2    0    0  0.30534096864E+02  0.12069813706E+02 -0.28383305012E+02  0.43400731303E+02  0.00000000000E+00 0.  1.
         11    1    3    3    0    0 -0.18418245746E+02 -0.47831308302E-01  0.94825373923E+01  0.20715998162E+02  0.51100000000E-03 0. -1.
        -11    1    3    3    0    0 -0.43648025192E+01 -0.77500005644E+01  0.14912828005E+02  0.17363941061E+02  0.51100000000E-03 0.  1.
        -12    1    3    3    0    0 -0.77510485988E+01 -0.42719818331E+01  0.39879396144E+01  0.97073294747E+01  0.00000000000E+00 0.  1.
</event>
<event>
 7    1  0.9175399E-010  0.4778727E+02  0.7816164E-02  0.1312668E+00
        -11   -1    0    0    0    0  0.00000000000E+00  0.00000000000E+00  0.45593999997E+02  0.45594000000E+02  0.51100000000E-03 0.  1.
         11   -1    0    0    0    0 -0.00000000000E+00 -0.00000000000E+00 -0.45593999997E+02  0.45594000000E+02  0.51100000000E-03 0. -1.
    9900012    2    1    2    0    0 -0.21723728141E+01 -0.25752835385E+02 -0.34866825529E+02  0.47787271244E+02  0.20000000912E+02 0.  0.
         12    1    1    2    0    0  0.21723728141E+01  0.25752835385E+02  0.34866825529E+02  0.43400728756E+02  0.00000000000E+00 0. -1.
         11    1    3    3    0    0 -0.76969989523E+00 -0.10299909212E+02 -0.98652511554E+00  0.10375634910E+02  0.51100000000E-03 0.  1.
        -11    1    3    3    0    0 -0.12288021377E+00 -0.63194727924E+01 -0.17599422438E+02  0.18700013538E+02  0.51100000000E-03 0. -1.
        -12    1    3    3    0    0 -0.12797927051E+01 -0.91334533802E+01 -0.16280877976E+02  0.18711622797E+02  0.00000000000E+00 0.  1.
</event>
<event>
 7    1  0.9175399E-010  0.4778727E+02  0.7816164E-02  0.1312668E+00
        -11   -1    0    0    0    0  0.00000000000E+00  0.00000000000E+00  0.45593999997E+02  0.45594000000E+02  0.51100000000E-03 0. -1.
         11   -1    0    0    0    0 -0.00000000000E+00 -0.00000000000E+00 -0.45593999997E+02  0.45594000000E+02  0.51100000000E-03 0.  1.
    9900012    2    1    2    0    0  0.97236187028E+01 -0.20828655561E+01  0.42246140126E+02  0.47787269071E+02  0.19999991003E+02 0.  0.
        -12    1    1    2    0    0 -0.97236187028E+01  0.20828655561E+01 -0.42246140126E+02  0.43400730929E+02  0.00000000000E+00 0.  1.
         11    1    3    3    0    0  0.49673298139E+01  0.64263599297E+01  0.83041161104E+01  0.11615972282E+02  0.51100000000E-03 0. -1.
        -11    1    3    3    0    0  0.12133738245E+01 -0.50305144794E+01  0.27779454830E+02  0.28257325827E+02  0.51100000000E-03 0.  1.
        -12    1    3    3    0    0  0.35429150644E+01 -0.34787110065E+01  0.61625691859E+01  0.79139709622E+01  0.00000000000E+00 0.  1.
</event>
<event>
 7    1  0.9175399E-010  0.4778727E+02  0.7816164E-02  0.1312668E+00
        -11   -1    0    0    0    0  0.00000000000E+00  0.00000000000E+00  0.45593999997E+02  0.45594000000E+02  0.51100000000E-03 0. -1.
         11   -1    0    0    0    0 -0.00000000000E+00 -0.00000000000E+00 -0.45593999997E+02  0.45594000000E+02  0.51100000000E-03 0.  1.
    9900012    2    1    2    0    0  0.33543267832E+01 -0.43109121024E+02 -0.37383357826E+01  0.47787274453E+02  0.20000015540E+02 0.  0.
         12    1    1    2    0    0 -0.33543267832E+01  0.43109121024E+02  0.37383357826E+01  0.43400725547E+02  0.00000000000E+00 0. -1.
         11    1    3    3    0    0 -0.76161029085E+01 -0.19263811244E+02 -0.52910282328E+01  0.21379766771E+02  0.51100000000E-03 0. -1.
        -11    1    3    3    0    0  0.55137089564E+01 -0.14368534788E+02  0.22552611582E+00  0.15391771851E+02  0.51100000000E-03 0.  1.
         12    1    3    3    0    0  0.54567207352E+01 -0.94767749915E+01  0.13271663343E+01  0.11015735831E+02  0.00000000000E+00 0. -1.
</event>
<event>
 7    1  0.9175399E-010  0.4778727E+02  0.7816164E-02  0.1312668E+00
        -11   -1    0    0    0    0  0.00000000000E+00  0.00000000000E+00  0.45593999997E+02  0.45594000000E+02  0.51100000000E-03 0. -1.
         11   -1    0    0    0    0 -0.00000000000E+00 -0.00000000000E+00 -0.45593999997E+02  0.45594000000E+02  0.51100000000E-03 0.  1.
    9900012    2    1    2    0    0 -0.25730522655E+02  0.29421106570E+02  0.18866951527E+02  0.47787272266E+02  0.20000005571E+02 0.  0.
        -12    1    1    2    0    0  0.25730522655E+02 -0.29421106570E+02 -0.18866951527E+02  0.43400727734E+02  0.00000000000E+00 0.  1.
         11    1    3    3    0    0 -0.52652131335E+01  0.10179185740E+02  0.30977917442E+01  0.11871588168E+02  0.51100000000E-03 0. -1.
        -11    1    3    3    0    0  0.17176116772E+01  0.39021927802E+01  0.57201323064E+01  0.71342282155E+01  0.51100000000E-03 0.  1.
        -12    1    3    3    0    0 -0.22182921198E+02  0.15339728050E+02  0.10049027476E+02  0.28781455883E+02  0.00000000000E+00 0.  1.
</event>
<event>
 7    1  0.9175399E-010  0.4778727E+02  0.7816164E-02  0.1312668E+00
        -11   -1    0    0    0    0  0.00000000000E+00  0.00000000000E+00  0.45593999997E+02  0.45594000000E+02  0.51100000000E-03 0. -1.
         11   -1    0    0    0    0 -0.00000000000E+00 -0.00000000000E+00 -0.45593999997E+02  0.45594000000E+02  0.51100000000E-03 0.  1.
    9900012    2    1    2    0    0 -0.91913952601E+01  0.32410998138E+02  0.27361816094E+02  0.47787268127E+02  0.19999986700E+02 0.  0.
        -12    1    1    2    0    0  0.91913952601E+01 -0.32410998138E+02 -0.27361816094E+02  0.43400731873E+02  0.00000000000E+00 0.  1.
         11    1    3    3    0    0 -0.11477551492E+02  0.23697346036E+02  0.13366214220E+02  0.29528868591E+02  0.51100000000E-03 0. -1.
        -11    1    3    3    0    0  0.32508188045E+01  0.30998877173E+00  0.40205167991E+01  0.51796207902E+01  0.51100000000E-03 0.  1.
         12    1    3    3    0    0 -0.96466257290E+00  0.84036633299E+01  0.99750850751E+01  0.13078778746E+02  0.00000000000E+00 0. -1.
</event>
<event>
 7    1  0.9175399E-010  0.4778728E+02  0.7816164E-02  0.1312668E+00
        -11   -1    0    0    0    0  0.00000000000E+00  0.00000000000E+00  0.45593999997E+02  0.45594000000E+02  0.51100000000E-03 0. -1.
         11   -1    0    0    0    0 -0.00000000000E+00 -0.00000000000E+00 -0.45593999997E+02  0.45594000000E+02  0.51100000000E-03 0.  1.
    9900012    2    1    2    0    0  0.56339946911E+00  0.19476495510E+02  0.38781072705E+02  0.47787275393E+02  0.20000019825E+02 0.  0.
        -12    1    1    2    0    0 -0.56339946911E+00 -0.19476495510E+02 -0.38781072705E+02  0.43400724607E+02  0.00000000000E+00 0.  1.
         11    1    3    3    0    0 -0.23641689233E+01  0.71718619400E+01  0.19536316033E+01  0.78001009665E+01  0.51100000000E-03 0. -1.
        -11    1    3    3    0    0  0.41966613831E+01  0.28768881977E+01  0.20199019765E+02  0.20829998853E+02  0.51100000000E-03 0.  1.
        -12    1    3    3    0    0 -0.12690929906E+01  0.94277453724E+01  0.16628421336E+02  0.19157175573E+02  0.00000000000E+00 0.  1.
</event>
<event>
 7    1  0.9175399E-010  0.4778727E+02  0.7816164E-02  0.1312668E+00
        -11   -1    0    0    0    0  0.00000000000E+00  0.00000000000E+00  0.45593999997E+02  0.45594000000E+02  0.51100000000E-03 0. -1.
         11   -1    0    0    0    0 -0.00000000000E+00 -0.00000000000E+00 -0.45593999997E+02  0.45594000000E+02  0.51100000000E-03 0.  1.
    9900012    2    1    2    0    0 -0.51471548631E+01  0.37332462004E+02  0.21527135166E+02  0.47787268774E+02  0.19999989649E+02 0.  0.
        -12    1    1    2    0    0  0.51471548631E+01 -0.37332462004E+02 -0.21527135166E+02  0.43400731226E+02  0.00000000000E+00 0.  1.
         11    1    3    3    0    0 -0.21152237193E+00  0.17040754917E+02  0.17344030995E+02  0.24315581039E+02  0.51100000000E-03 0. -1.
        -11    1    3    3    0    0 -0.44223317219E+01  0.21319514465E+02  0.45918691939E+01  0.22252280284E+02  0.51100000000E-03 0.  1.
         12    1    3    3    0    0 -0.51330076932E+00 -0.10278073781E+01 -0.40876502320E+00  0.12194074506E+01  0.00000000000E+00 0. -1.
</event>
<event>
 7    1  0.9175399E-010  0.4778727E+02  0.7816164E-02  0.1312668E+00
        -11   -1    0    0    0    0  0.00000000000E+00  0.00000000000E+00  0.45593999997E+02  0.45594000000E+02  0.51100000000E-03 0. -1.
         11   -1    0    0    0    0 -0.00000000000E+00 -0.00000000000E+00 -0.45593999997E+02  0.45594000000E+02  0.51100000000E-03 0.  1.
    9900012    2    1    2    0    0 -0.32652123405E+02  0.34419725253E+01 -0.28383352512E+02  0.47787273767E+02  0.20000012415E+02 0.  0.
         12    1    1    2    0    0  0.32652123405E+02 -0.34419725253E+01  0.28383352512E+02  0.43400726233E+02  0.00000000000E+00 0. -1.
         11    1    3    3    0    0 -0.16567021811E+02  0.29181623970E+01 -0.51856738662E+01  0.17603212694E+02  0.51100000000E-03 0. -1.
        -11    1    3    3    0    0 -0.22029668558E+00  0.17027803992E+01 -0.80024972091E+01  0.81846168853E+01  0.51100000000E-03 0.  1.
        -12    1    3    3    0    0 -0.15864804908E+02 -0.11789702709E+01 -0.15195181437E+02  0.21999444188E+02  0.00000000000E+00 0.  1.
</event>
<event>
 7    1  0.9175399E-010  0.4778727E+02  0.7816164E-02  0.1312668E+00
        -11   -1    0    0    0    0  0.00000000000E+00  0.00000000000E+00  0.45593999997E+02  0.45594000000E+02  0.51100000000E-03 0. -1.
         11   -1    0    0    0    0 -0.00000000000E+00 -0.00000000000E+00 -0.45593999997E+02  0.45594000000E+02  0.51100000000E-03 0.  1.
    9900012    2    1    2    0    0  0.10296666435E+02  0.39799745543E+02  0.13913386381E+02  0.47787269527E+02  0.19999993083E+02 0.  0.
        -12    1    1    2    0    0 -0.10296666435E+02 -0.39799745543E+02 -0.13913386381E+02  0.43400730473E+02  0.00000000000E+00 0.  1.
         11    1    3    3    0    0  0.56351954024E+01  0.11136441942E+02  0.43161803920E+01  0.13206255328E+02  0.51100000000E-03 0. -1.
        -11    1    3    3    0    0  0.73196554781E+01  0.73376918616E+01 -0.13686828277E+01  0.10454299169E+02  0.51100000000E-03 0.  1.
        -12    1    3    3    0    0 -0.26581844457E+01  0.21325611739E+02  0.10965888817E+02  0.24126715030E+02  0.00000000000E+00 0.  1.
</event>
<event>
 7    1  0.9175399E-010  0.4778727E+02  0.7816164E-02  0.1312668E+00
        -11   -1    0    0    0    0  0.00000000000E+00  0.00000000000E+00  0.45593999997E+02  0.45594000000E+02  0.51100000000E-03 0. -1.
         11   -1    0    0    0    0 -0.00000000000E+00 -0.00000000000E+00 -0.45593999997E+02  0.45594000000E+02  0.51100000000E-03 0.  1.
    9900012    2    1    2    0    0 -0.80802903501E+01 -0.81473407926E+01  0.41856338461E+02  0.47787270473E+02  0.19999997393E+02 0.  0.
        -12    1    1    2    0    0  0.80802903501E+01  0.81473407926E+01 -0.41856338461E+02  0.43400729527E+02  0.00000000000E+00 0.  1.
         11    1    3    3    0    0 -0.10510631168E+02 -0.10980868764E+02  0.21584719107E+02  0.26399866393E+02  0.51100000000E-03 0. -1.
        -11    1    3    3    0    0 -0.66607593885E+00  0.30482746055E+01  0.14522702738E+02  0.14854108196E+02  0.51100000000E-03 0.  1.
         12    1    3    3    0    0  0.30964167565E+01 -0.21474663435E+00  0.57489166163E+01  0.65332958840E+01  0.00000000000E+00 0. -1.
</event>
<event>
 7    1  0.9175399E-010  0.4778726E+02  0.7816164E-02  0.1312668E+00
        -11   -1    0    0    0    0  0.00000000000E+00  0.00000000000E+00  0.45593999997E+02  0.45594000000E+02  0.51100000000E-03 0. -1.
         11   -1    0    0    0    0 -0.00000000000E+00 -0.00000000000E+00 -0.45593999997E+02  0.45594000000E+02  0.51100000000E-03 0.  1.
    9900012    2    1    2    0    0  0.64391795773E+01 -0.13587543750E+02  0.40712892562E+02  0.47787262684E+02  0.19999961882E+02 0.  0.
        -12    1    1    2    0    0 -0.64391795773E+01  0.13587543750E+02 -0.40712892562E+02  0.43400737316E+02  0.00000000000E+00 0.  1.
         11    1    3    3    0    0  0.64265083956E+01 -0.13177824287E+02  0.29549785713E+02  0.32987041381E+02  0.51100000000E-03 0. -1.
        -11    1    3    3    0    0  0.11082338808E+01 -0.77173593450E+00 -0.15380335032E+01  0.20467794227E+01  0.51100000000E-03 0.  1.
        -12    1    3    3    0    0 -0.10955626992E+01  0.36201647172E+00  0.12701140352E+02  0.12753441881E+02  0.00000000000E+00 0.  1.
</event>
<event>
 7    1  0.9175399E-010  0.4778727E+02  0.7816164E-02  0.1312668E+00
        -11   -1    0    0    0    0  0.00000000000E+00  0.00000000000E+00  0.45593999997E+02  0.45594000000E+02  0.51100000000E-03 0. -1.
         11   -1    0    0    0    0 -0.00000000000E+00 -0.00000000000E+00 -0.45593999997E+02  0.45594000000E+02  0.51100000000E-03 0.  1.
    9900012    2    1    2    0    0  0.50938888861E+01 -0.99649938845E+01  0.41932976078E+02  0.47787270861E+02  0.19999999162E+02 0.  0.
        -12    1    1    2    0    0 -0.50938888861E+01  0.99649938845E+01 -0.41932976078E+02  0.43400729139E+02  0.00000000000E+00 0.  1.
         11    1    3    3    0    0  0.40470618038E+01 -0.26887096348E+01  0.12414622634E+02  0.13331568706E+02  0.51100000000E-03 0. -1.
        -11    1    3    3    0    0  0.34639796898E+01  0.43020429634E+01  0.61613052468E+01  0.82745641308E+01  0.51100000000E-03 0.  1.
        -12    1    3    3    0    0 -0.24171526074E+01 -0.11578327213E+02  0.23357048196E+02  0.26181138024E+02  0.00000000000E+00 0.  1.
</event>
<event>
 7    1  0.9175399E-010  0.4778727E+02  0.7816164E-02  0.1312668E+00
        -11   -1    0    0    0    0  0.00000000000E+00  0.00000000000E+00  0.45593999997E+02  0.45594000000E+02  0.51100000000E-03 0. -1.
         11   -1    0    0    0    0 -0.00000000000E+00 -0.00000000000E+00 -0.45593999997E+02  0.45594000000E+02  0.51100000000E-03 0.  1.
    9900012    2    1    2    0    0 -0.12891625567E+02 -0.23913222114E+01  0.41372827873E+02  0.47787270538E+02  0.19999997690E+02 0.  0.
        -12    1    1    2    0    0  0.12891625567E+02  0.23913222114E+01 -0.41372827873E+02  0.43400729462E+02  0.00000000000E+00 0.  1.
         11    1    3    3    0    0 -0.23342360228E+01 -0.29040956684E+01  0.76984895295E+01  0.85527288486E+01  0.51100000000E-03 0. -1.
        -11    1    3    3    0    0  0.16380152082E+01 -0.55441740038E+01  0.56815935205E+01  0.81056439843E+01  0.51100000000E-03 0.  1.
        -12    1    3    3    0    0 -0.12195404752E+02  0.60569474609E+01  0.27992744823E+02  0.31128897705E+02  0.00000000000E+00 0.  1.
</event>
<event>
 7    1  0.9175399E-010  0.4778727E+02  0.7816164E-02  0.1312668E+00
        -11   -1    0    0    0    0  0.00000000000E+00  0.00000000000E+00  0.45593999997E+02  0.45594000000E+02  0.51100000000E-03 0. -1.
         11   -1    0    0    0    0 -0.00000000000E+00 -0.00000000000E+00 -0.45593999997E+02  0.45594000000E+02  0.51100000000E-03 0.  1.
    9900012    2    1    2    0    0 -0.51409967722E+01  0.34617797069E+02 -0.25667131657E+02  0.47787269946E+02  0.19999994992E+02 0.  0.
         12    1    1    2    0    0  0.51409967722E+01 -0.34617797069E+02  0.25667131657E+02  0.43400730054E+02  0.00000000000E+00 0. -1.
         11    1    3    3    0    0 -0.82474219362E+01  0.10246013737E+02 -0.40231155711E+01  0.13754498364E+02  0.51100000000E-03 0. -1.
        -11    1    3    3    0    0  0.49167617655E+01  0.22128255113E+02 -0.16164152025E+02  0.27840869806E+02  0.51100000000E-03 0.  1.
        -12    1    3    3    0    0 -0.18103366015E+01  0.22435282196E+01 -0.54798640603E+01  0.61919017759E+01  0.00000000000E+00 0.  1.
</event>
<event>
 7    1  0.9175399E-010  0.4778727E+02  0.7816164E-02  0.1312668E+00
        -11   -1    0    0    0    0  0.00000000000E+00  0.00000000000E+00  0.45593999997E+02  0.45594000000E+02  0.51100000000E-03 0. -1.
         11   -1    0    0    0    0 -0.00000000000E+00 -0.00000000000E+00 -0.45593999997E+02  0.45594000000E+02  0.51100000000E-03 0.  1.
    9900012    2    1    2    0    0  0.17639716555E+01  0.18346675401E+02 -0.39292634744E+02  0.47787271441E+02  0.20000001808E+02 0.  0.
         12    1    1    2    0    0 -0.17639716555E+01 -0.18346675401E+02  0.39292634744E+02  0.43400728559E+02  0.00000000000E+00 0. -1.
         11    1    3    3    0    0  0.64229045391E+01  0.14728258604E+02 -0.20104548771E+02  0.25736514639E+02  0.51100000000E-03 0. -1.
        -11    1    3    3    0    0 -0.47526669124E+01  0.34443860112E+01 -0.45895421391E+01  0.74508747863E+01  0.51100000000E-03 0.  1.
         12    1    3    3    0    0  0.93734028788E-01  0.17403078622E+00 -0.14598543834E+02  0.14599882015E+02  0.00000000000E+00 0. -1.
</event>
<event>
 7    1  0.9175399E-010  0.4778727E+02  0.7816164E-02  0.1312668E+00
        -11   -1    0    0    0    0  0.00000000000E+00  0.00000000000E+00  0.45593999997E+02  0.45594000000E+02  0.51100000000E-03 0.  1.
         11   -1    0    0    0    0 -0.00000000000E+00 -0.00000000000E+00 -0.45593999997E+02  0.45594000000E+02  0.51100000000E-03 0. -1.
    9900012    2    1    2    0    0  0.44076621390E+01  0.36077138480E+02 -0.23719952066E+02  0.47787268065E+02  0.19999986417E+02 0.  0.
         12    1    1    2    0    0 -0.44076621390E+01 -0.36077138480E+02  0.23719952066E+02  0.43400731935E+02  0.00000000000E+00 0. -1.
         11    1    3    3    0    0 -0.25091596518E+01  0.54093768660E+01 -0.67556406966E+01  0.90108779661E+01  0.51100000000E-03 0. -1.
        -11    1    3    3    0    0  0.44417625600E+01  0.51139079599E+01 -0.10169783344E+02  0.12219075365E+02  0.51100000000E-03 0.  1.
        -12    1    3    3    0    0  0.24750592307E+01  0.25553853654E+02 -0.67945280257E+01  0.26557314734E+02  0.00000000000E+00 0.  1.
</event>
<event>
 7    1  0.9841933E-010  0.4778727E+02  0.7816164E-02  0.1312668E+00
        -11   -1    0    0    0    0  0.00000000000E+00  0.00000000000E+00  0.45593999997E+02  0.45594000000E+02  0.51100000000E-03 0. -1.
         11   -1    0    0    0    0 -0.00000000000E+00 -0.00000000000E+00 -0.45593999997E+02  0.45594000000E+02  0.51100000000E-03 0.  1.
    9900012    2    1    2    0    0  0.79068846217E+01  0.11736666936E+01  0.42658255894E+02  0.47787272888E+02  0.20000008407E+02 0.  0.
        -12    1    1    2    0    0 -0.79068846217E+01 -0.11736666936E+01 -0.42658255894E+02  0.43400727112E+02  0.00000000000E+00 0.  1.
         11    1    3    3    0    0  0.37717087561E+01  0.31073194970E+01  0.16277262149E+02  0.16995013525E+02  0.51100000000E-03 0. -1.
        -11    1    3    3    0    0 -0.46004970530E+01  0.32629366907E+01  0.80050523416E+01  0.97924558838E+01  0.51100000000E-03 0.  1.
        -12    1    3    3    0    0  0.87356729187E+01 -0.51965894942E+01  0.18375941403E+02  0.20999803479E+02  0.00000000000E+00 0.  1.
</event>
<event>
 7    1  0.9175399E-010  0.4778728E+02  0.7816164E-02  0.1312668E+00
        -11   -1    0    0    0    0  0.00000000000E+00  0.00000000000E+00  0.45593999997E+02  0.45594000000E+02  0.51100000000E-03 0. -1.
         11   -1    0    0    0    0 -0.00000000000E+00 -0.00000000000E+00 -0.45593999997E+02  0.45594000000E+02  0.51100000000E-03 0.  1.
    9900012    2    1    2    0    0 -0.33423483633E+02 -0.27683128747E+02 -0.37104904777E+00  0.47787279352E+02  0.20000037878E+02 0.  0.
         12    1    1    2    0    0  0.33423483633E+02  0.27683128747E+02  0.37104904777E+00  0.43400720648E+02  0.00000000000E+00 0. -1.
         11    1    3    3    0    0 -0.17454901652E+02 -0.22039903682E+02  0.11687454772E+00  0.28114846717E+02  0.51100000000E-03 0. -1.
        -11    1    3    3    0    0 -0.16409836916E+02 -0.37620831530E+01 -0.23382449987E+01  0.16997158798E+02  0.51100000000E-03 0.  1.
         12    1    3    3    0    0  0.44125493528E+00 -0.18811419124E+01  0.18503214032E+01  0.26752738379E+01  0.00000000000E+00 0. -1.
</event>
<event>
 7    1  0.9175399E-010  0.4778727E+02  0.7816164E-02  0.1312668E+00
        -11   -1    0    0    0    0  0.00000000000E+00  0.00000000000E+00  0.45593999997E+02  0.45594000000E+02  0.51100000000E-03 0. -1.
         11   -1    0    0    0    0 -0.00000000000E+00 -0.00000000000E+00 -0.45593999997E+02  0.45594000000E+02  0.51100000000E-03 0.  1.
    9900012    2    1    2    0    0  0.56605640036E+01  0.74529883582E+01 -0.42379645039E+02  0.47787270352E+02  0.19999996843E+02 0.  0.
         12    1    1    2    0    0 -0.56605640036E+01 -0.74529883582E+01  0.42379645039E+02  0.43400729648E+02  0.00000000000E+00 0. -1.
         11    1    3    3    0    0  0.21761846432E+01  0.77233657031E+00  0.23855009230E+00  0.23214628550E+01  0.51100000000E-03 0. -1.
        -11    1    3    3    0    0  0.19016071194E+00  0.10664713527E+02 -0.29006258523E+02  0.30905263459E+02  0.51100000000E-03 0.  1.
        -12    1    3    3    0    0  0.32942186484E+01 -0.39840617390E+01 -0.13611936609E+02  0.14560544038E+02  0.00000000000E+00 0.  1.
</event>
<event>
 7    1  0.9175399E-010  0.4778727E+02  0.7816164E-02  0.1312668E+00
        -11   -1    0    0    0    0  0.00000000000E+00  0.00000000000E+00  0.45593999997E+02  0.45594000000E+02  0.51100000000E-03 0. -1.
         11   -1    0    0    0    0 -0.00000000000E+00 -0.00000000000E+00 -0.45593999997E+02  0.45594000000E+02  0.51100000000E-03 0.  1.
    9900012    2    1    2    0    0  0.15481788441E+02  0.13571819421E+02  0.38206585635E+02  0.47787271416E+02  0.20000001693E+02 0.  0.
        -12    1    1    2    0    0 -0.15481788441E+02 -0.13571819421E+02 -0.38206585635E+02  0.43400728584E+02  0.00000000000E+00 0.  1.
         11    1    3    3    0    0  0.40071837052E+01  0.12245837161E+02  0.13428185231E+02  0.18610056633E+02  0.51100000000E-03 0. -1.
        -11    1    3    3    0    0  0.65841662691E+01 -0.45367135164E+00  0.22585257338E+02  0.23529787768E+02  0.51100000000E-03 0.  1.
        -12    1    3    3    0    0  0.48904384664E+01  0.17796536114E+01  0.21931430663E+01  0.56474270141E+01  0.00000000000E+00 0.  1.
</event>
<event>
 7    1  0.9175399E-010  0.4778726E+02  0.7816164E-02  0.1312668E+00
        -11   -1    0    0    0    0  0.00000000000E+00  0.00000000000E+00  0.45593999997E+02  0.45594000000E+02  0.51100000000E-03 0. -1.
         11   -1    0    0    0    0 -0.00000000000E+00 -0.00000000000E+00 -0.45593999997E+02  0.45594000000E+02  0.51100000000E-03 0.  1.
    9900012    2    1    2    0    0  0.11775059506E+02 -0.38337895169E+02 -0.16588478270E+02  0.47787264481E+02  0.19999970072E+02 0.  0.
         12    1    1    2    0    0 -0.11775059506E+02  0.38337895169E+02  0.16588478270E+02  0.43400735519E+02  0.00000000000E+00 0. -1.
         11    1    3    3    0    0  0.29375449945E+00 -0.20304483181E+02 -0.14619888391E+02  0.25021979654E+02  0.51100000000E-03 0. -1.
        -11    1    3    3    0    0  0.12046795752E+02 -0.18185303365E+02 -0.25229480798E+01  0.21958957481E+02  0.51100000000E-03 0.  1.
         12    1    3    3    0    0 -0.56549074529E+00  0.15189137757E+00  0.55435820136E+00  0.80632734606E+00  0.00000000000E+00 0. -1.
</event>
<event>
 7    1  0.9175399E-010  0.4778727E+02  0.7816164E-02  0.1312668E+00
        -11   -1    0    0    0    0  0.00000000000E+00  0.00000000000E+00  0.45593999997E+02  0.45594000000E+02  0.51100000000E-03 0. -1.
         11   -1    0    0    0    0 -0.00000000000E+00 -0.00000000000E+00 -0.45593999997E+02  0.45594000000E+02  0.51100000000E-03 0.  1.
    9900012    2    1    2    0    0  0.98768031207E+01  0.80647591059E+00  0.42254250821E+02  0.47787270101E+02  0.19999995699E+02 0.  0.
        -12    1    1    2    0    0 -0.98768031207E+01 -0.80647591059E+00 -0.42254250821E+02  0.43400729899E+02  0.00000000000E+00 0.  1.
         11    1    3    3    0    0 -0.18879838936E+00  0.61868943306E+01  0.74570131760E+01  0.96912513154E+01  0.51100000000E-03 0.  1.
        -11    1    3    3    0    0  0.64597331606E+01 -0.83560482267E+01  0.20615517632E+02  0.23163576192E+02  0.51100000000E-03 0. -1.
         12    1    3    3    0    0  0.36058683495E+01  0.29756298066E+01  0.14181720013E+02  0.14932442594E+02  0.00000000000E+00 0. -1.
</event>
<event>
 7    1  0.9175399E-010  0.4778726E+02  0.7816164E-02  0.1312668E+00
        -11   -1    0    0    0    0  0.00000000000E+00  0.00000000000E+00  0.45593999997E+02  0.45594000000E+02  0.51100000000E-03 0. -1.
         11   -1    0    0    0    0 -0.00000000000E+00 -0.00000000000E+00 -0.45593999997E+02  0.45594000000E+02  0.51100000000E-03 0.  1.
    9900012    2    1    2    0    0 -0.12539199333E+02  0.96186603152E+01  0.40421208961E+02  0.47787259453E+02  0.19999947148E+02 0.  0.
        -12    1    1    2    0    0  0.12539199333E+02 -0.96186603152E+01 -0.40421208961E+02  0.43400740547E+02  0.00000000000E+00 0.  1.
         11    1    3    3    0    0 -0.82428946377E+01  0.40093499319E+01  0.11448241401E+02  0.14665688880E+02  0.51100000000E-03 0. -1.
        -11    1    3    3    0    0  0.52538278951E+01  0.28600599880E+01  0.89041165812E+01  0.10726879464E+02  0.51100000000E-03 0.  1.
        -12    1    3    3    0    0 -0.95501325904E+01  0.27492503953E+01  0.20068850979E+02  0.22394691108E+02  0.00000000000E+00 0.  1.
</event>
<event>
 7    1  0.9175399E-010  0.4778727E+02  0.7816164E-02  0.1312668E+00
        -11   -1    0    0    0    0  0.00000000000E+00  0.00000000000E+00  0.45593999997E+02  0.45594000000E+02  0.51100000000E-03 0. -1.
         11   -1    0    0    0    0 -0.00000000000E+00 -0.00000000000E+00 -0.45593999997E+02  0.45594000000E+02  0.51100000000E-03 0.  1.
    9900012    2    1    2    0    0  0.27474598708E+02  0.18150167233E+02  0.28272623900E+02  0.47787269511E+02  0.19999993010E+02 0.  0.
        -12    1    1    2    0    0 -0.27474598708E+02 -0.18150167233E+02 -0.28272623900E+02  0.43400730489E+02  0.00000000000E+00 0.  1.
         11    1    3    3    0    0  0.83070258983E+01  0.47257625590E+01  0.17075976044E+02  0.19568558178E+02  0.51100000000E-03 0. -1.
        -11    1    3    3    0    0  0.19212901330E+02  0.87425611772E+01  0.10145717627E+02  0.23420152430E+02  0.51100000000E-03 0.  1.
         12    1    3    3    0    0 -0.45328519587E-01  0.46818434967E+01  0.10509302290E+01  0.47985589033E+01  0.00000000000E+00 0. -1.
</event>
<event>
 7    1  0.9175399E-010  0.4778727E+02  0.7816164E-02  0.1312668E+00
        -11   -1    0    0    0    0  0.00000000000E+00  0.00000000000E+00  0.45593999997E+02  0.45594000000E+02  0.51100000000E-03 0. -1.
         11   -1    0    0    0    0 -0.00000000000E+00 -0.00000000000E+00 -0.45593999997E+02  0.45594000000E+02  0.51100000000E-03 0.  1.
    9900012    2    1    2    0    0  0.10004997489E+02 -0.21638683051E+01  0.42176305081E+02  0.47787274072E+02  0.20000013803E+02 0.  0.
        -12    1    1    2    0    0 -0.10004997489E+02  0.21638683051E+01 -0.42176305081E+02  0.43400725928E+02  0.00000000000E+00 0.  1.
         11    1    3    3    0    0  0.15863085153E+02 -0.33558505062E+01  0.30725321067E+02  0.34741107612E+02  0.51100000000E-03 0. -1.
        -11    1    3    3    0    0 -0.33863874706E+01  0.11146394408E+01  0.50287714482E+01  0.61642991267E+01  0.51100000000E-03 0.  1.
         12    1    3    3    0    0 -0.24717001931E+01  0.77342760299E-01  0.64222125657E+01  0.68818673328E+01  0.00000000000E+00 0. -1.
</event>
<event>
 7    1  0.9175399E-010  0.4778728E+02  0.7816164E-02  0.1312668E+00
        -11   -1    0    0    0    0  0.00000000000E+00  0.00000000000E+00  0.45593999997E+02  0.45594000000E+02  0.51100000000E-03 0.  1.
         11   -1    0    0    0    0 -0.00000000000E+00 -0.00000000000E+00 -0.45593999997E+02  0.45594000000E+02  0.51100000000E-03 0. -1.
    9900012    2    1    2    0    0  0.34994099720E+02  0.24715475962E+02 -0.69412404598E+01  0.47787278966E+02  0.20000036116E+02 0.  0.
        -12    1    1    2    0    0 -0.34994099720E+02 -0.24715475962E+02  0.69412404598E+01  0.43400721034E+02  0.00000000000E+00 0.  1.
         11    1    3    3    0    0  0.10407661411E+02  0.10342051421E+02  0.55092790260E+01  0.15672574750E+02  0.51100000000E-03 0. -1.
        -11    1    3    3    0    0  0.20291296941E+02  0.13169426187E+02 -0.13252337992E+02  0.27582512216E+02  0.51100000000E-03 0.  1.
         12    1    3    3    0    0  0.42951413674E+01  0.12039983531E+01  0.80181850632E+00  0.45321919992E+01  0.00000000000E+00 0. -1.
</event>
<event>
 7    1  0.9175399E-010  0.4778721E+02  0.7816164E-02  0.1312668E+00
        -11   -1    0    0    0    0  0.00000000000E+00  0.00000000000E+00  0.45593999997E+02  0.45594000000E+02  0.51100000000E-03 0. -1.
         11   -1    0    0    0    0 -0.00000000000E+00 -0.00000000000E+00 -0.45593999997E+02  0.45594000000E+02  0.51100000000E-03 0.  1.
    9900012    2    1    2    0    0 -0.10409943026E+02 -0.16047457103E+02 -0.38958191384E+02  0.47787211192E+02  0.19999727106E+02 0.  0.
         12    1    1    2    0    0  0.10409943026E+02  0.16047457103E+02  0.38958191384E+02  0.43400788808E+02  0.00000000000E+00 0. -1.
         11    1    3    3    0    0 -0.96482736993E+00 -0.55452093764E+01 -0.17951034379E+01  0.59078452498E+01  0.51100000000E-03 0. -1.
        -11    1    3    3    0    0 -0.24578321823E+01 -0.30825886099E+01 -0.27675834626E+02  0.27955234109E+02  0.51100000000E-03 0.  1.
         12    1    3    3    0    0 -0.69872834740E+01 -0.74196591166E+01 -0.94872533196E+01  0.13924131833E+02  0.00000000000E+00 0. -1.
</event>
<event>
 7    1  0.9175399E-010  0.4778727E+02  0.7816164E-02  0.1312668E+00
        -11   -1    0    0    0    0  0.00000000000E+00  0.00000000000E+00  0.45593999997E+02  0.45594000000E+02  0.51100000000E-03 0. -1.
         11   -1    0    0    0    0 -0.00000000000E+00 -0.00000000000E+00 -0.45593999997E+02  0.45594000000E+02  0.51100000000E-03 0.  1.
    9900012    2    1    2    0    0  0.10131112546E+02  0.21130874677E+02 -0.36530404908E+02  0.47787265113E+02  0.19999972955E+02 0.  0.
         12    1    1    2    0    0 -0.10131112546E+02 -0.21130874677E+02  0.36530404908E+02  0.43400734887E+02  0.00000000000E+00 0. -1.
         11    1    3    3    0    0 -0.30639310308E+01  0.37970304789E+00 -0.11391546288E+02  0.11802507143E+02  0.51100000000E-03 0. -1.
        -11    1    3    3    0    0  0.98281594151E+01  0.19730337194E+02 -0.20044792338E+02  0.29793835326E+02  0.51100000000E-03 0.  1.
        -12    1    3    3    0    0  0.33668841619E+01  0.10208344354E+01 -0.50940662818E+01  0.61909226443E+01  0.00000000000E+00 0.  1.
</event>
<event>
 7    1  0.9175399E-010  0.4778727E+02  0.7816164E-02  0.1312668E+00
        -11   -1    0    0    0    0  0.00000000000E+00  0.00000000000E+00  0.45593999997E+02  0.45594000000E+02  0.51100000000E-03 0.  1.
         11   -1    0    0    0    0 -0.00000000000E+00 -0.00000000000E+00 -0.45593999997E+02  0.45594000000E+02  0.51100000000E-03 0. -1.
    9900012    2    1    2    0    0  0.41414750740E+02 -0.13312568593E+01  0.12910065352E+02  0.47787267159E+02  0.19999982286E+02 0.  0.
         12    1    1    2    0    0 -0.41414750740E+02  0.13312568593E+01 -0.12910065352E+02  0.43400732841E+02  0.00000000000E+00 0. -1.
         11    1    3    3    0    0  0.51867863842E+01  0.11481640576E+01 -0.27469857393E+01  0.59805488554E+01  0.51100000000E-03 0. -1.
        -11    1    3    3    0    0  0.31141940960E+02  0.30012744337E+01  0.12749223600E+02  0.33784180287E+02  0.51100000000E-03 0.  1.
        -12    1    3    3    0    0  0.50860233958E+01 -0.54806953505E+01  0.29078274912E+01  0.80225380165E+01  0.00000000000E+00 0.  1.
</event>
<event>
 7    1  0.9175399E-010  0.4778727E+02  0.7816164E-02  0.1312668E+00
        -11   -1    0    0    0    0  0.00000000000E+00  0.00000000000E+00  0.45593999997E+02  0.45594000000E+02  0.51100000000E-03 0.  1.
         11   -1    0    0    0    0 -0.00000000000E+00 -0.00000000000E+00 -0.45593999997E+02  0.45594000000E+02  0.51100000000E-03 0. -1.
    9900012    2    1    2    0    0  0.16482345698E+02 -0.40135194939E+02  0.10592340410E+01  0.47787267642E+02  0.19999984485E+02 0.  0.
        -12    1    1    2    0    0 -0.16482345698E+02  0.40135194939E+02 -0.10592340410E+01  0.43400732358E+02  0.00000000000E+00 0.  1.
         11    1    3    3    0    0  0.16170310629E+02 -0.37094669712E+02  0.66577175493E+01  0.41009982567E+02  0.51100000000E-03 0. -1.
        -11    1    3    3    0    0 -0.42395100100E+00 -0.63311046878E+00 -0.15172022480E+00  0.77690578879E+00  0.51100000000E-03 0.  1.
         12    1    3    3    0    0  0.73598606981E+00 -0.24074147582E+01 -0.54467632836E+01  0.60003792864E+01  0.00000000000E+00 0. -1.
</event>
<event>
 7    1  0.9175399E-010  0.4778727E+02  0.7816164E-02  0.1312668E+00
        -11   -1    0    0    0    0  0.00000000000E+00  0.00000000000E+00  0.45593999997E+02  0.45594000000E+02  0.51100000000E-03 0.  1.
         11   -1    0    0    0    0 -0.00000000000E+00 -0.00000000000E+00 -0.45593999997E+02  0.45594000000E+02  0.51100000000E-03 0. -1.
    9900012    2    1    2    0    0 -0.41888661550E+02 -0.11343028867E+02  0.54690174133E+00  0.47787269916E+02  0.19999994853E+02 0.  0.
        -12    1    1    2    0    0  0.41888661550E+02  0.11343028867E+02 -0.54690174133E+00  0.43400730084E+02  0.00000000000E+00 0.  1.
         11    1    3    3    0    0 -0.39786543185E-01 -0.20361377252E+01  0.13387262953E+01  0.24371352363E+01  0.51100000000E-03 0. -1.
        -11    1    3    3    0    0 -0.41163202410E+02 -0.11746047269E+02 -0.87185193616E+00  0.42815172371E+02  0.51100000000E-03 0.  1.
        -12    1    3    3    0    0 -0.68567259675E+00  0.24391561269E+01  0.80027382159E-01  0.25349623080E+01  0.00000000000E+00 0.  1.
</event>
<event>
 7    1  0.9175399E-010  0.4778727E+02  0.7816164E-02  0.1312668E+00
        -11   -1    0    0    0    0  0.00000000000E+00  0.00000000000E+00  0.45593999997E+02  0.45594000000E+02  0.51100000000E-03 0. -1.
         11   -1    0    0    0    0 -0.00000000000E+00 -0.00000000000E+00 -0.45593999997E+02  0.45594000000E+02  0.51100000000E-03 0.  1.
    9900012    2    1    2    0    0  0.35004552344E+02  0.11730488020E+02 -0.22818863152E+02  0.47787267868E+02  0.19999985519E+02 0.  0.
         12    1    1    2    0    0 -0.35004552344E+02 -0.11730488020E+02  0.22818863152E+02  0.43400732132E+02  0.00000000000E+00 0. -1.
         11    1    3    3    0    0  0.80997660006E+01  0.52672300657E+01 -0.91814664949E+00  0.97053034657E+01  0.51100000000E-03 0. -1.
        -11    1    3    3    0    0  0.21325457910E+02  0.84894549865E+01 -0.22467553243E+02  0.32119105686E+02  0.51100000000E-03 0.  1.
        -12    1    3    3    0    0  0.55793284341E+01 -0.20261970325E+01  0.56683674118E+00  0.59628587172E+01  0.00000000000E+00 0.  1.
</event>
<event>
 7    1  0.9175399E-010  0.4778727E+02  0.7816164E-02  0.1312668E+00
        -11   -1    0    0    0    0  0.00000000000E+00  0.00000000000E+00  0.45593999997E+02  0.45594000000E+02  0.51100000000E-03 0. -1.
         11   -1    0    0    0    0 -0.00000000000E+00 -0.00000000000E+00 -0.45593999997E+02  0.45594000000E+02  0.51100000000E-03 0.  1.
    9900012    2    1    2    0    0 -0.19343388178E+02 -0.21524612405E+02 -0.32344208129E+02  0.47787269535E+02  0.19999993118E+02 0.  0.
         12    1    1    2    0    0  0.19343388178E+02  0.21524612405E+02  0.32344208129E+02  0.43400730465E+02  0.00000000000E+00 0. -1.
         11    1    3    3    0    0 -0.85543379598E+01 -0.21325734559E+02 -0.22129316646E+02  0.31900945251E+02  0.51100000000E-03 0. -1.
        -11    1    3    3    0    0 -0.88478249577E+01 -0.22519526675E+01 -0.64470574879E+01  0.11176754798E+02  0.51100000000E-03 0.  1.
         12    1    3    3    0    0 -0.19412252608E+01  0.20530748212E+01 -0.37678339951E+01  0.47095694866E+01  0.00000000000E+00 0. -1.
</event>
<event>
 7    1  0.9175399E-010  0.4778727E+02  0.7816164E-02  0.1312668E+00
        -11   -1    0    0    0    0  0.00000000000E+00  0.00000000000E+00  0.45593999997E+02  0.45594000000E+02  0.51100000000E-03 0. -1.
         11   -1    0    0    0    0 -0.00000000000E+00 -0.00000000000E+00 -0.45593999997E+02  0.45594000000E+02  0.51100000000E-03 0.  1.
    9900012    2    1    2    0    0  0.12161448484E+02  0.17442297458E+02  0.37835020185E+02  0.47787270488E+02  0.19999997461E+02 0.  0.
        -12    1    1    2    0    0 -0.12161448484E+02 -0.17442297458E+02 -0.37835020185E+02  0.43400729512E+02  0.00000000000E+00 0.  1.
         11    1    3    3    0    0  0.11483397850E+01  0.24020071092E+01  0.20913563195E+02  0.21082349209E+02  0.51100000000E-03 0. -1.
        -11    1    3    3    0    0  0.12375511953E+02  0.13555793370E+02  0.16421720156E+02  0.24628961065E+02  0.51100000000E-03 0.  1.
        -12    1    3    3    0    0 -0.13624032535E+01  0.14844969785E+01  0.49973683323E+00  0.20759602132E+01  0.00000000000E+00 0.  1.
</event>
<event>
 7    1  0.9175399E-010  0.4778727E+02  0.7816164E-02  0.1312668E+00
        -11   -1    0    0    0    0  0.00000000000E+00  0.00000000000E+00  0.45593999997E+02  0.45594000000E+02  0.51100000000E-03 0. -1.
         11   -1    0    0    0    0 -0.00000000000E+00 -0.00000000000E+00 -0.45593999997E+02  0.45594000000E+02  0.51100000000E-03 0.  1.
    9900012    2    1    2    0    0  0.28240334640E+02  0.19846589372E+02  0.26310064891E+02  0.47787272761E+02  0.20000007828E+02 0.  0.
        -12    1    1    2    0    0 -0.28240334640E+02 -0.19846589372E+02 -0.26310064891E+02  0.43400727239E+02  0.00000000000E+00 0.  1.
         11    1    3    3    0    0  0.75699629193E+01  0.88534452000E+01  0.11465352559E+02  0.16344483475E+02  0.51100000000E-03 0. -1.
        -11    1    3    3    0    0  0.21753082019E+02  0.69644449466E+01  0.14899504745E+02  0.27270777632E+02  0.51100000000E-03 0.  1.
        -12    1    3    3    0    0 -0.10827102976E+01  0.40286992253E+01 -0.54792413274E-01  0.41720116545E+01  0.00000000000E+00 0.  1.
</event>
<event>
 7    1  0.9175399E-010  0.4778727E+02  0.7816164E-02  0.1312668E+00
        -11   -1    0    0    0    0  0.00000000000E+00  0.00000000000E+00  0.45593999997E+02  0.45594000000E+02  0.51100000000E-03 0. -1.
         11   -1    0    0    0    0 -0.00000000000E+00 -0.00000000000E+00 -0.45593999997E+02  0.45594000000E+02  0.51100000000E-03 0.  1.
    9900012    2    1    2    0    0 -0.15456546602E+01 -0.93961901851E+01  0.42343194686E+02  0.47787267580E+02  0.19999984206E+02 0.  0.
        -12    1    1    2    0    0  0.15456546602E+01  0.93961901851E+01 -0.42343194686E+02  0.43400732420E+02  0.00000000000E+00 0.  1.
         11    1    3    3    0    0  0.18838266574E+01 -0.11054712648E+02  0.12357765287E+02  0.16687415551E+02  0.51100000000E-03 0. -1.
        -11    1    3    3    0    0  0.15141955369E+01 -0.11201660358E+00  0.17355276349E+02  0.17421565752E+02  0.51100000000E-03 0.  1.
         12    1    3    3    0    0 -0.49436768546E+01  0.17705390663E+01  0.12630153050E+02  0.13678286278E+02  0.00000000000E+00 0. -1.
</event>
<event>
 7    1  0.9175399E-010  0.4778727E+02  0.7816164E-02  0.1312668E+00
        -11   -1    0    0    0    0  0.00000000000E+00  0.00000000000E+00  0.45593999997E+02  0.45594000000E+02  0.51100000000E-03 0. -1.
         11   -1    0    0    0    0 -0.00000000000E+00 -0.00000000000E+00 -0.45593999997E+02  0.45594000000E+02  0.51100000000E-03 0.  1.
    9900012    2    1    2    0    0  0.20815581009E+02 -0.36600204420E+02 -0.10524266615E+02  0.47787267701E+02  0.19999984754E+02 0.  0.
         12    1    1    2    0    0 -0.20815581009E+02  0.36600204420E+02  0.10524266615E+02  0.43400732299E+02  0.00000000000E+00 0. -1.
         11    1    3    3    0    0  0.15268326884E+02 -0.16800366003E+02 -0.12789704547E+00  0.22702212702E+02  0.51100000000E-03 0. -1.
        -11    1    3    3    0    0  0.21465714750E+01 -0.18997762127E+02 -0.74653419420E+01  0.20524474793E+02  0.51100000000E-03 0.  1.
         12    1    3    3    0    0  0.34006826496E+01 -0.80207629013E+00 -0.29310276273E+01  0.45605802055E+01  0.00000000000E+00 0. -1.
</event>
<event>
 7    1  0.9175399E-010  0.4778727E+02  0.7816164E-02  0.1312668E+00
        -11   -1    0    0    0    0  0.00000000000E+00  0.00000000000E+00  0.45593999997E+02  0.45594000000E+02  0.51100000000E-03 0. -1.
         11   -1    0    0    0    0 -0.00000000000E+00 -0.00000000000E+00 -0.45593999997E+02  0.45594000000E+02  0.51100000000E-03 0.  1.
    9900012    2    1    2    0    0 -0.29823919784E+00 -0.29092868523E+02 -0.32204647745E+02  0.47787270952E+02  0.19999999577E+02 0.  0.
         12    1    1    2    0    0  0.29823919784E+00  0.29092868523E+02  0.32204647745E+02  0.43400729048E+02  0.00000000000E+00 0. -1.
         11    1    3    3    0    0  0.18190448516E+01  0.79951744746E+00 -0.24071035457E+00  0.20015229344E+01  0.51100000000E-03 0.  1.
        -11    1    3    3    0    0  0.46436073221E+01 -0.64697983178E+01 -0.11319036995E+02  0.13839869146E+02  0.51100000000E-03 0. -1.
        -12    1    3    3    0    0 -0.67608913716E+01 -0.23422587653E+02 -0.20644900396E+02  0.31945878871E+02  0.00000000000E+00 0.  1.
</event>
<event>
 7    1  0.9175399E-010  0.4778727E+02  0.7816164E-02  0.1312668E+00
        -11   -1    0    0    0    0  0.00000000000E+00  0.00000000000E+00  0.45593999997E+02  0.45594000000E+02  0.51100000000E-03 0. -1.
         11   -1    0    0    0    0 -0.00000000000E+00 -0.00000000000E+00 -0.45593999997E+02  0.45594000000E+02  0.51100000000E-03 0.  1.
    9900012    2    1    2    0    0 -0.35500736626E+01  0.25085996897E+02 -0.35237955768E+02  0.47787265099E+02  0.19999972891E+02 0.  0.
         12    1    1    2    0    0  0.35500736626E+01 -0.25085996897E+02  0.35237955768E+02  0.43400734901E+02  0.00000000000E+00 0. -1.
         11    1    3    3    0    0 -0.54851370327E+01  0.65037962331E+01 -0.23667881989E+01  0.88310690377E+01  0.51100000000E-03 0. -1.
        -11    1    3    3    0    0  0.55989874924E+01  0.13665170596E+02 -0.23665749378E+02  0.27895398227E+02  0.51100000000E-03 0.  1.
        -12    1    3    3    0    0 -0.36639241223E+01  0.49170300674E+01 -0.92054181908E+01  0.11060797834E+02  0.00000000000E+00 0.  1.
</event>
<event>
 7    1  0.9175399E-010  0.4778726E+02  0.7816164E-02  0.1312668E+00
        -11   -1    0    0    0    0  0.00000000000E+00  0.00000000000E+00  0.45593999997E+02  0.45594000000E+02  0.51100000000E-03 0. -1.
         11   -1    0    0    0    0 -0.00000000000E+00 -0.00000000000E+00 -0.45593999997E+02  0.45594000000E+02  0.51100000000E-03 0.  1.
    9900012    2    1    2    0    0 -0.16563526800E+02  0.31982724157E+02 -0.24215262045E+02  0.47787262904E+02  0.19999962887E+02 0.  0.
         12    1    1    2    0    0  0.16563526800E+02 -0.31982724157E+02  0.24215262045E+02  0.43400737096E+02  0.00000000000E+00 0. -1.
         11    1    3    3    0    0 -0.11984480872E+02  0.27338281938E+02 -0.11283713783E+02  0.31911308937E+02  0.51100000000E-03 0. -1.
        -11    1    3    3    0    0 -0.58260918028E+01  0.52267327681E+01 -0.10778046101E+02  0.13320223690E+02  0.51100000000E-03 0.  1.
         12    1    3    3    0    0  0.12470458742E+01 -0.58229054929E+00 -0.21535021609E+01  0.25557302779E+01  0.00000000000E+00 0. -1.
</event>
<event>
 7    1  0.9175399E-010  0.4778728E+02  0.7816164E-02  0.1312668E+00
        -11   -1    0    0    0    0  0.00000000000E+00  0.00000000000E+00  0.45593999997E+02  0.45594000000E+02  0.51100000000E-03 0. -1.
         11   -1    0    0    0    0 -0.00000000000E+00 -0.00000000000E+00 -0.45593999997E+02  0.45594000000E+02  0.51100000000E-03 0.  1.
    9900012    2    1    2    0    0 -0.72055104774E+01 -0.28388988996E+02  0.32027626000E+02  0.47787275298E+02  0.20000019395E+02 0.  0.
        -12    1    1    2    0    0  0.72055104774E+01  0.28388988996E+02 -0.32027626000E+02  0.43400724702E+02  0.00000000000E+00 0.  1.
         11    1    3    3    0    0 -0.36142422229E+01 -0.15774500106E+02  0.22245095368E+02  0.27508941612E+02  0.51100000000E-03 0. -1.
        -11    1    3    3    0    0 -0.96614974332E+00 -0.13111227892E+02  0.37351665018E+01  0.13667084957E+02  0.51100000000E-03 0.  1.
        -12    1    3    3    0    0 -0.26251185111E+01  0.49673900203E+00  0.60473641302E+01  0.66112487290E+01  0.00000000000E+00 0.  1.
</event>
<event>
 7    1  0.9175399E-010  0.4778728E+02  0.7816164E-02  0.1312668E+00
        -11   -1    0    0    0    0  0.00000000000E+00  0.00000000000E+00  0.45593999997E+02  0.45594000000E+02  0.51100000000E-03 0. -1.
         11   -1    0    0    0    0 -0.00000000000E+00 -0.00000000000E+00 -0.45593999997E+02  0.45594000000E+02  0.51100000000E-03 0.  1.
    9900012    2    1    2    0    0 -0.39122717231E+01 -0.12010642122E+02 -0.41521809551E+02  0.47787284999E+02  0.20000063623E+02 0.  0.
         12    1    1    2    0    0  0.39122717231E+01  0.12010642122E+02  0.41521809551E+02  0.43400715001E+02  0.00000000000E+00 0. -1.
         11    1    3    3    0    0 -0.28709696077E+01 -0.10101986756E+01 -0.76577045733E+01  0.82403523860E+01  0.51100000000E-03 0. -1.
        -11    1    3    3    0    0  0.74268374245E+01 -0.37954250382E+01 -0.20691412103E+02  0.22309139392E+02  0.51100000000E-03 0.  1.
        -12    1    3    3    0    0 -0.84681395399E+01 -0.72050184086E+01 -0.13172692875E+02  0.17237793220E+02  0.00000000000E+00 0.  1.
</event>
<event>
 7    1  0.9175399E-010  0.4778727E+02  0.7816164E-02  0.1312668E+00
        -11   -1    0    0    0    0  0.00000000000E+00  0.00000000000E+00  0.45593999997E+02  0.45594000000E+02  0.51100000000E-03 0. -1.
         11   -1    0    0    0    0 -0.00000000000E+00 -0.00000000000E+00 -0.45593999997E+02  0.45594000000E+02  0.51100000000E-03 0.  1.
    9900012    2    1    2    0    0  0.21155626651E+02  0.32275742251E+02 -0.19857973112E+02  0.47787272206E+02  0.20000005298E+02 0.  0.
         12    1    1    2    0    0 -0.21155626651E+02 -0.32275742251E+02  0.19857973112E+02  0.43400727794E+02  0.00000000000E+00 0. -1.
         11    1    3    3    0    0  0.18343967269E+02  0.10507784426E+02 -0.88443576509E+01  0.22915875092E+02  0.51100000000E-03 0. -1.
        -11    1    3    3    0    0 -0.46089680285E+00  0.72580775283E+01 -0.22759075477E+01  0.76204901874E+01  0.51100000000E-03 0.  1.
         12    1    3    3    0    0  0.32725561848E+01  0.14509880297E+02 -0.87377079136E+01  0.17250906927E+02  0.00000000000E+00 0. -1.
</event>
<event>
 7    1  0.9175399E-010  0.4778727E+02  0.7816164E-02  0.1312668E+00
        -11   -1    0    0    0    0  0.00000000000E+00  0.00000000000E+00  0.45593999997E+02  0.45594000000E+02  0.51100000000E-03 0. -1.
         11   -1    0    0    0    0 -0.00000000000E+00 -0.00000000000E+00 -0.45593999997E+02  0.45594000000E+02  0.51100000000E-03 0.  1.
    9900012    2    1    2    0    0 -0.37692643623E+02 -0.89286284326E+01 -0.19574661803E+02  0.47787272198E+02  0.20000005262E+02 0.  0.
         12    1    1    2    0    0  0.37692643623E+02  0.89286284326E+01  0.19574661803E+02  0.43400727802E+02  0.00000000000E+00 0. -1.
         11    1    3    3    0    0 -0.17562891016E+01 -0.31987677867E+01  0.29718126407E+01  0.47062020137E+01  0.51100000000E-03 0. -1.
        -11    1    3    3    0    0 -0.24820730846E+02 -0.50953990166E+01 -0.17865524874E+02  0.31003366755E+02  0.51100000000E-03 0.  1.
         12    1    3    3    0    0 -0.11115623675E+02 -0.63446162930E+00 -0.46809495698E+01  0.12077703429E+02  0.00000000000E+00 0. -1.
</event>
<event>
 7    1  0.9175399E-010  0.4778727E+02  0.7816164E-02  0.1312668E+00
        -11   -1    0    0    0    0  0.00000000000E+00  0.00000000000E+00  0.45593999997E+02  0.45594000000E+02  0.51100000000E-03 0. -1.
         11   -1    0    0    0    0 -0.00000000000E+00 -0.00000000000E+00 -0.45593999997E+02  0.45594000000E+02  0.51100000000E-03 0.  1.
    9900012    2    1    2    0    0 -0.19073135311E+01 -0.18333859085E+02 -0.39291921000E+02  0.47787270862E+02  0.19999999168E+02 0.  0.
         12    1    1    2    0    0  0.19073135311E+01  0.18333859085E+02  0.39291921000E+02  0.43400729138E+02  0.00000000000E+00 0. -1.
         11    1    3    3    0    0 -0.63085740221E+01 -0.72039642720E+01 -0.60373516210E+01  0.11320106991E+02  0.51100000000E-03 0. -1.
        -11    1    3    3    0    0  0.27699719742E+01 -0.48318534586E+01 -0.50372796536E+01  0.75095764962E+01  0.51100000000E-03 0.  1.
         12    1    3    3    0    0  0.16312885169E+01 -0.62980413541E+01 -0.28217289725E+02  0.28957587375E+02  0.00000000000E+00 0. -1.
</event>
<event>
 7    1  0.9175399E-010  0.4778724E+02  0.7816164E-02  0.1312668E+00
        -11   -1    0    0    0    0  0.00000000000E+00  0.00000000000E+00  0.45593999997E+02  0.45594000000E+02  0.51100000000E-03 0. -1.
         11   -1    0    0    0    0 -0.00000000000E+00 -0.00000000000E+00 -0.45593999997E+02  0.45594000000E+02  0.51100000000E-03 0.  1.
    9900012    2    1    2    0    0  0.26311863425E+02  0.10911626672E+00  0.34515211557E+02  0.47787240882E+02  0.19999862475E+02 0.  0.
        -12    1    1    2    0    0 -0.26311863425E+02 -0.10911626672E+00 -0.34515211557E+02  0.43400759118E+02  0.00000000000E+00 0.  1.
         11    1    3    3    0    0  0.80370539918E+01  0.45108151119E+01  0.12775272206E+02  0.15752754364E+02  0.51100000000E-03 0. -1.
        -11    1    3    3    0    0  0.11885731624E+02 -0.96102581206E+01  0.14203556668E+02  0.20865490641E+02  0.51100000000E-03 0.  1.
        -12    1    3    3    0    0  0.63890778086E+01  0.52085592754E+01  0.75363826827E+01  0.11168995877E+02  0.00000000000E+00 0.  1.
</event>
<event>
 7    1  0.9175399E-010  0.4778727E+02  0.7816164E-02  0.1312668E+00
        -11   -1    0    0    0    0  0.00000000000E+00  0.00000000000E+00  0.45593999997E+02  0.45594000000E+02  0.51100000000E-03 0. -1.
         11   -1    0    0    0    0 -0.00000000000E+00 -0.00000000000E+00 -0.45593999997E+02  0.45594000000E+02  0.51100000000E-03 0.  1.
    9900012    2    1    2    0    0 -0.38388855433E+02  0.16429368659E+02  0.11831934440E+02  0.47787273640E+02  0.20000011833E+02 0.  0.
        -12    1    1    2    0    0  0.38388855433E+02 -0.16429368659E+02 -0.11831934440E+02  0.43400726360E+02  0.00000000000E+00 0.  1.
         11    1    3    3    0    0 -0.19496576713E+02  0.99151589366E+00  0.92792712274E+00  0.19543813760E+02  0.51100000000E-03 0. -1.
        -11    1    3    3    0    0 -0.10035412640E+02  0.11988187037E+02  0.10294348460E+02  0.18718967540E+02  0.51100000000E-03 0.  1.
        -12    1    3    3    0    0 -0.88568660806E+01  0.34496657286E+01  0.60965885740E+00  0.95244923398E+01  0.00000000000E+00 0.  1.
</event>
<event>
 7    1  0.9175399E-010  0.4778727E+02  0.7816164E-02  0.1312668E+00
        -11   -1    0    0    0    0  0.00000000000E+00  0.00000000000E+00  0.45593999997E+02  0.45594000000E+02  0.51100000000E-03 0. -1.
         11   -1    0    0    0    0 -0.00000000000E+00 -0.00000000000E+00 -0.45593999997E+02  0.45594000000E+02  0.51100000000E-03 0.  1.
    9900012    2    1    2    0    0  0.34983515779E+02 -0.48657284395E+01  0.25221061166E+02  0.47787267104E+02  0.19999982036E+02 0.  0.
        -12    1    1    2    0    0 -0.34983515779E+02  0.48657284395E+01 -0.25221061166E+02  0.43400732896E+02  0.00000000000E+00 0.  1.
         11    1    3    3    0    0  0.80897918612E+01  0.43619133928E+01  0.13157607714E+02  0.16049724665E+02  0.51100000000E-03 0. -1.
        -11    1    3    3    0    0  0.61795165042E+01 -0.54054308311E+01  0.23354007348E+01  0.85357602795E+01  0.51100000000E-03 0.  1.
         12    1    3    3    0    0  0.20714207414E+02 -0.38222110012E+01  0.97280527174E+01  0.23201782160E+02  0.00000000000E+00 0. -1.
</event>
<event>
 7    1  0.9175399E-010  0.4778727E+02  0.7816164E-02  0.1312668E+00
        -11   -1    0    0    0    0  0.00000000000E+00  0.00000000000E+00  0.45593999997E+02  0.45594000000E+02  0.51100000000E-03 0. -1.
         11   -1    0    0    0    0 -0.00000000000E+00 -0.00000000000E+00 -0.45593999997E+02  0.45594000000E+02  0.51100000000E-03 0.  1.
    9900012    2    1    2    0    0  0.19298429292E+01  0.16676161036E+02  0.40022553368E+02  0.47787269376E+02  0.19999992392E+02 0.  0.
        -12    1    1    2    0    0 -0.19298429292E+01 -0.16676161036E+02 -0.40022553368E+02  0.43400730624E+02  0.00000000000E+00 0.  1.
         11    1    3    3    0    0  0.49195318690E+01  0.12297021867E+02  0.12975840656E+02  0.18541601376E+02  0.51100000000E-03 0. -1.
        -11    1    3    3    0    0 -0.64254563021E+01  0.32536763729E+01  0.20997648863E+02  0.22198516992E+02  0.51100000000E-03 0.  1.
        -12    1    3    3    0    0  0.34357673623E+01  0.11254627968E+01  0.60490638486E+01  0.70471510072E+01  0.00000000000E+00 0.  1.
</event>
<event>
 7    1  0.9175399E-010  0.4778728E+02  0.7816164E-02  0.1312668E+00
        -11   -1    0    0    0    0  0.00000000000E+00  0.00000000000E+00  0.45593999997E+02  0.45594000000E+02  0.51100000000E-03 0. -1.
         11   -1    0    0    0    0 -0.00000000000E+00 -0.00000000000E+00 -0.45593999997E+02  0.45594000000E+02  0.51100000000E-03 0.  1.
    9900012    2    1    2    0    0 -0.41370434846E+00  0.18807303896E+02  0.39111851699E+02  0.47787276798E+02  0.20000026235E+02 0.  0.
        -12    1    1    2    0    0  0.41370434846E+00 -0.18807303896E+02 -0.39111851699E+02  0.43400723202E+02  0.00000000000E+00 0.  1.
         11    1    3    3    0    0 -0.65558620949E+01  0.13143211641E+01  0.65561811557E+01  0.93643088126E+01  0.51100000000E-03 0. -1.
        -11    1    3    3    0    0  0.10272995436E+01  0.14365682135E+02  0.22442102373E+02  0.26666010702E+02  0.51100000000E-03 0.  1.
        -12    1    3    3    0    0  0.51148582029E+01  0.31273005976E+01  0.10113568169E+02  0.11756957284E+02  0.00000000000E+00 0.  1.
</event>
<event>
 7    1  0.9175399E-010  0.4778727E+02  0.7816164E-02  0.1312668E+00
        -11   -1    0    0    0    0  0.00000000000E+00  0.00000000000E+00  0.45593999997E+02  0.45594000000E+02  0.51100000000E-03 0.  1.
         11   -1    0    0    0    0 -0.00000000000E+00 -0.00000000000E+00 -0.45593999997E+02  0.45594000000E+02  0.51100000000E-03 0. -1.
    9900012    2    1    2    0    0  0.41340438320E+02 -0.26981158030E+01  0.12934904210E+02  0.47787269404E+02  0.19999992518E+02 0.  0.
        -12    1    1    2    0    0 -0.41340438320E+02  0.26981158030E+01 -0.12934904210E+02  0.43400730596E+02  0.00000000000E+00 0.  1.
         11    1    3    3    0    0  0.18659757049E+02 -0.35925123517E+01  0.12481394429E+02  0.22734948544E+02  0.51100000000E-03 0. -1.
        -11    1    3    3    0    0  0.50937747663E+01  0.41887680807E+01 -0.22251181620E+01  0.69601343737E+01  0.51100000000E-03 0.  1.
         12    1    3    3    0    0  0.17586906505E+02 -0.32943715320E+01  0.26786279429E+01  0.18092186486E+02  0.00000000000E+00 0. -1.
</event>
<event>
 7    1  0.9175399E-010  0.4778727E+02  0.7816164E-02  0.1312668E+00
        -11   -1    0    0    0    0  0.00000000000E+00  0.00000000000E+00  0.45593999997E+02  0.45594000000E+02  0.51100000000E-03 0.  1.
         11   -1    0    0    0    0 -0.00000000000E+00 -0.00000000000E+00 -0.45593999997E+02  0.45594000000E+02  0.51100000000E-03 0. -1.
    9900012    2    1    2    0    0 -0.84289735453E+01  0.37525046966E+02  0.20110857953E+02  0.47787270140E+02  0.19999995875E+02 0.  0.
        -12    1    1    2    0    0  0.84289735453E+01 -0.37525046966E+02 -0.20110857953E+02  0.43400729860E+02  0.00000000000E+00 0.  1.
         11    1    3    3    0    0  0.31708296760E+00  0.95584426100E+01  0.39415761103E+01  0.10344099247E+02  0.51100000000E-03 0. -1.
        -11    1    3    3    0    0 -0.11813830946E+02  0.27829292873E+02  0.16342711260E+02  0.34367431603E+02  0.51100000000E-03 0.  1.
        -12    1    3    3    0    0  0.30677744328E+01  0.13731148275E+00 -0.17342941761E+00  0.30757392895E+01  0.00000000000E+00 0.  1.
</event>
<event>
 7    1  0.9175399E-010  0.4778727E+02  0.7816164E-02  0.1312668E+00
        -11   -1    0    0    0    0  0.00000000000E+00  0.00000000000E+00  0.45593999997E+02  0.45594000000E+02  0.51100000000E-03 0. -1.
         11   -1    0    0    0    0 -0.00000000000E+00 -0.00000000000E+00 -0.45593999997E+02  0.45594000000E+02  0.51100000000E-03 0.  1.
    9900012    2    1    2    0    0 -0.16361981406E+02  0.24327213360E+02 -0.32001494874E+02  0.47787269366E+02  0.19999992349E+02 0.  0.
         12    1    1    2    0    0  0.16361981406E+02 -0.24327213360E+02  0.32001494874E+02  0.43400730634E+02  0.00000000000E+00 0. -1.
         11    1    3    3    0    0  0.21913989797E+01  0.10723933160E+02 -0.10766737984E+02  0.15353423690E+02  0.51100000000E-03 0. -1.
        -11    1    3    3    0    0 -0.28877781278E+01  0.39366629985E+01 -0.92759615206E+01  0.10482368076E+02  0.51100000000E-03 0.  1.
         12    1    3    3    0    0 -0.15665602257E+02  0.96666172017E+01 -0.11958795368E+02  0.21951477601E+02  0.00000000000E+00 0. -1.
</event>
<event>
 7    1  0.9175399E-010  0.4778727E+02  0.7816164E-02  0.1312668E+00
        -11   -1    0    0    0    0  0.00000000000E+00  0.00000000000E+00  0.45593999997E+02  0.45594000000E+02  0.51100000000E-03 0. -1.
         11   -1    0    0    0    0 -0.00000000000E+00 -0.00000000000E+00 -0.45593999997E+02  0.45594000000E+02  0.51100000000E-03 0.  1.
    9900012    2    1    2    0    0  0.25524337820E+01 -0.10421882927E+02 -0.42053450535E+02  0.47787271159E+02  0.20000000524E+02 0.  0.
         12    1    1    2    0    0 -0.25524337820E+01  0.10421882927E+02  0.42053450535E+02  0.43400728841E+02  0.00000000000E+00 0. -1.
         11    1    3    3    0    0 -0.15416499752E+01 -0.12813567862E+02 -0.17736278724E+02  0.21934898888E+02  0.51100000000E-03 0. -1.
        -11    1    3    3    0    0  0.30312116633E+00  0.35190456340E+01 -0.49228031337E+01  0.60588411078E+01  0.51100000000E-03 0.  1.
         12    1    3    3    0    0  0.37909625909E+01 -0.11273606992E+01 -0.19394368678E+02  0.19793531163E+02  0.00000000000E+00 0. -1.
</event>
<event>
 7    1  0.9175399E-010  0.4778727E+02  0.7816164E-02  0.1312668E+00
        -11   -1    0    0    0    0  0.00000000000E+00  0.00000000000E+00  0.45593999997E+02  0.45594000000E+02  0.51100000000E-03 0. -1.
         11   -1    0    0    0    0 -0.00000000000E+00 -0.00000000000E+00 -0.45593999997E+02  0.45594000000E+02  0.51100000000E-03 0.  1.
    9900012    2    1    2    0    0  0.21718294206E+02  0.81370748957E+01 -0.36684154632E+02  0.47787268530E+02  0.19999988535E+02 0.  0.
         12    1    1    2    0    0 -0.21718294206E+02 -0.81370748957E+01  0.36684154632E+02  0.43400731470E+02  0.00000000000E+00 0. -1.
         11    1    3    3    0    0  0.30914320644E+00 -0.40278392349E+01 -0.29903283245E+01  0.50260443864E+01  0.51100000000E-03 0. -1.
        -11    1    3    3    0    0  0.14300750659E+02  0.12027506208E+02 -0.27950819808E+02  0.33621729629E+02  0.51100000000E-03 0.  1.
         12    1    3    3    0    0  0.71084003403E+01  0.13740792205E+00 -0.57430064994E+01  0.91394945149E+01  0.00000000000E+00 0. -1.
</event>
<event>
 7    1  0.9175399E-010  0.4778727E+02  0.7816164E-02  0.1312668E+00
        -11   -1    0    0    0    0  0.00000000000E+00  0.00000000000E+00  0.45593999997E+02  0.45594000000E+02  0.51100000000E-03 0. -1.
         11   -1    0    0    0    0 -0.00000000000E+00 -0.00000000000E+00 -0.45593999997E+02  0.45594000000E+02  0.51100000000E-03 0.  1.
    9900012    2    1    2    0    0 -0.99931551421E+00 -0.43377725528E+02  0.99892427752E+00  0.47787267826E+02  0.19999985327E+02 0.  0.
         12    1    1    2    0    0  0.99931551421E+00  0.43377725528E+02 -0.99892427752E+00  0.43400732174E+02  0.00000000000E+00 0. -1.
         11    1    3    3    0    0  0.40696124895E+01 -0.33500679282E+02 -0.12485337423E+01  0.33770047305E+02  0.51100000000E-03 0. -1.
        -11    1    3    3    0    0 -0.81156556289E+00  0.33181410853E+00  0.28083128322E+01  0.29419994035E+01  0.51100000000E-03 0.  1.
        -12    1    3    3    0    0 -0.42573624408E+01 -0.10208860354E+02 -0.56085481243E+00  0.11075221118E+02  0.00000000000E+00 0.  1.
</event>
<event>
 7    1  0.9175399E-010  0.4778727E+02  0.7816164E-02  0.1312668E+00
        -11   -1    0    0    0    0  0.00000000000E+00  0.00000000000E+00  0.45593999997E+02  0.45594000000E+02  0.51100000000E-03 0. -1.
         11   -1    0    0    0    0 -0.00000000000E+00 -0.00000000000E+00 -0.45593999997E+02  0.45594000000E+02  0.51100000000E-03 0.  1.
    9900012    2    1    2    0    0 -0.35162820793E+02  0.58574118185E+01 -0.24756613591E+02  0.47787272404E+02  0.20000006201E+02 0.  0.
         12    1    1    2    0    0  0.35162820793E+02 -0.58574118185E+01  0.24756613591E+02  0.43400727596E+02  0.00000000000E+00 0. -1.
         11    1    3    3    0    0 -0.31485104773E+02  0.94001625658E+01 -0.26234858537E+02  0.42046910487E+02  0.51100000000E-03 0. -1.
        -11    1    3    3    0    0 -0.12534585894E+01 -0.12351872403E+01  0.16179538104E+01  0.23905272948E+01  0.51100000000E-03 0.  1.
         12    1    3    3    0    0 -0.24242574305E+01 -0.23075635071E+01 -0.13970886484E+00  0.33498346221E+01  0.00000000000E+00 0. -1.
</event>
<event>
 7    1  0.9175399E-010  0.4778727E+02  0.7816164E-02  0.1312668E+00
        -11   -1    0    0    0    0  0.00000000000E+00  0.00000000000E+00  0.45593999997E+02  0.45594000000E+02  0.51100000000E-03 0. -1.
         11   -1    0    0    0    0 -0.00000000000E+00 -0.00000000000E+00 -0.45593999997E+02  0.45594000000E+02  0.51100000000E-03 0.  1.
    9900012    2    1    2    0    0  0.15973451644E+02  0.31604775697E+02 -0.25092033778E+02  0.47787272317E+02  0.20000005801E+02 0.  0.
         12    1    1    2    0    0 -0.15973451644E+02 -0.31604775697E+02  0.25092033778E+02  0.43400727683E+02  0.00000000000E+00 0. -1.
         11    1    3    3    0    0  0.44197439623E+00  0.14006340146E+01 -0.70656325938E+01  0.72166669052E+01  0.51100000000E-03 0. -1.
        -11    1    3    3    0    0  0.98002557131E+01  0.27345948352E+02 -0.17985428535E+02  0.34166087619E+02  0.51100000000E-03 0.  1.
        -12    1    3    3    0    0  0.57312215349E+01  0.28581933305E+01 -0.40972649328E-01  0.64045177925E+01  0.00000000000E+00 0.  1.
</event>
<event>
 7    1  0.9175399E-010  0.4778727E+02  0.7816164E-02  0.1312668E+00
        -11   -1    0    0    0    0  0.00000000000E+00  0.00000000000E+00  0.45593999997E+02  0.45594000000E+02  0.51100000000E-03 0. -1.
         11   -1    0    0    0    0 -0.00000000000E+00 -0.00000000000E+00 -0.45593999997E+02  0.45594000000E+02  0.51100000000E-03 0.  1.
    9900012    2    1    2    0    0  0.15216654870E+02 -0.34875410626E+02 -0.20875405230E+02  0.47787269645E+02  0.19999993621E+02 0.  0.
         12    1    1    2    0    0 -0.15216654870E+02  0.34875410626E+02  0.20875405230E+02  0.43400730355E+02  0.00000000000E+00 0. -1.
         11    1    3    3    0    0  0.14270536424E+01 -0.73378764295E+01  0.10832052989E+01  0.75534261480E+01  0.51100000000E-03 0. -1.
        -11    1    3    3    0    0  0.14472990893E+02 -0.14384856204E+02 -0.11555641256E+02  0.23450466914E+02  0.51100000000E-03 0.  1.
        -12    1    3    3    0    0 -0.68338966628E+00 -0.13152677993E+02 -0.10402969273E+02  0.16783376583E+02  0.00000000000E+00 0.  1.
</event>
<event>
 7    1  0.9175399E-010  0.4778726E+02  0.7816164E-02  0.1312668E+00
        -11   -1    0    0    0    0  0.00000000000E+00  0.00000000000E+00  0.45593999997E+02  0.45594000000E+02  0.51100000000E-03 0. -1.
         11   -1    0    0    0    0 -0.00000000000E+00 -0.00000000000E+00 -0.45593999997E+02  0.45594000000E+02  0.51100000000E-03 0.  1.
    9900012    2    1    2    0    0 -0.10962415782E+01 -0.61883080875E+00  0.43382482400E+02  0.47787257191E+02  0.19999936839E+02 0.  0.
        -12    1    1    2    0    0  0.10962415782E+01  0.61883080875E+00 -0.43382482400E+02  0.43400742809E+02  0.00000000000E+00 0.  1.
         11    1    3    3    0    0 -0.18719531706E+01  0.38633980197E+01  0.48205582781E+00  0.43200035895E+01  0.51100000000E-03 0.  1.
        -11    1    3    3    0    0  0.28013728745E+01 -0.37799811372E+01  0.33273264539E+02  0.33604256884E+02  0.51100000000E-03 0. -1.
         12    1    3    3    0    0 -0.20256612821E+01 -0.70224769123E+00  0.96271620331E+01  0.98629967181E+01  0.00000000000E+00 0. -1.
</event>
<event>
 7    1  0.9175399E-010  0.4778727E+02  0.7816164E-02  0.1312668E+00
        -11   -1    0    0    0    0  0.00000000000E+00  0.00000000000E+00  0.45593999997E+02  0.45594000000E+02  0.51100000000E-03 0. -1.
         11   -1    0    0    0    0 -0.00000000000E+00 -0.00000000000E+00 -0.45593999997E+02  0.45594000000E+02  0.51100000000E-03 0.  1.
    9900012    2    1    2    0    0 -0.14449276608E+02 -0.18953313706E+00 -0.40924387867E+02  0.47787273743E+02  0.20000012304E+02 0.  0.
         12    1    1    2    0    0  0.14449276608E+02  0.18953313706E+00  0.40924387867E+02  0.43400726257E+02  0.00000000000E+00 0. -1.
         11    1    3    3    0    0 -0.26964730935E+01 -0.87439854198E+01 -0.97687945550E+01  0.13384976484E+02  0.51100000000E-03 0. -1.
        -11    1    3    3    0    0 -0.88732559883E+01  0.70714029311E+01 -0.23900491921E+02  0.26457001447E+02  0.51100000000E-03 0.  1.
         12    1    3    3    0    0 -0.28795475266E+01  0.14830493517E+01 -0.72551013915E+01  0.79452958119E+01  0.00000000000E+00 0. -1.
</event>
<event>
 7    1  0.9175399E-010  0.4778727E+02  0.7816164E-02  0.1312668E+00
        -11   -1    0    0    0    0  0.00000000000E+00  0.00000000000E+00  0.45593999997E+02  0.45594000000E+02  0.51100000000E-03 0. -1.
         11   -1    0    0    0    0 -0.00000000000E+00 -0.00000000000E+00 -0.45593999997E+02  0.45594000000E+02  0.51100000000E-03 0.  1.
    9900012    2    1    2    0    0 -0.19322144204E+02  0.36139705222E+01 -0.38693888876E+02  0.47787273325E+02  0.20000010399E+02 0.  0.
         12    1    1    2    0    0  0.19322144204E+02 -0.36139705222E+01  0.38693888876E+02  0.43400726675E+02  0.00000000000E+00 0. -1.
         11    1    3    3    0    0 -0.47324963325E+01  0.36374961402E+01 -0.19593592528E+01  0.62822757540E+01  0.51100000000E-03 0. -1.
        -11    1    3    3    0    0 -0.73219963927E+01  0.28581127504E+01 -0.62735732546E+01  0.10056747054E+02  0.51100000000E-03 0.  1.
         12    1    3    3    0    0 -0.72676514785E+01 -0.28816383684E+01 -0.30460956368E+02  0.31448250517E+02  0.00000000000E+00 0. -1.
</event>
<event>
 7    1  0.9175399E-010  0.4778727E+02  0.7816164E-02  0.1312668E+00
        -11   -1    0    0    0    0  0.00000000000E+00  0.00000000000E+00  0.45593999997E+02  0.45594000000E+02  0.51100000000E-03 0. -1.
         11   -1    0    0    0    0 -0.00000000000E+00 -0.00000000000E+00 -0.45593999997E+02  0.45594000000E+02  0.51100000000E-03 0.  1.
    9900012    2    1    2    0    0 -0.39575193855E+02  0.13228136843E+02  0.11934981926E+02  0.47787269976E+02  0.19999995129E+02 0.  0.
        -12    1    1    2    0    0  0.39575193855E+02 -0.13228136843E+02 -0.11934981926E+02  0.43400730024E+02  0.00000000000E+00 0.  1.
         11    1    3    3    0    0 -0.31759040926E+02  0.13055516624E+02  0.41013230680E+01  0.34581845614E+02  0.51100000000E-03 0. -1.
        -11    1    3    3    0    0 -0.73160227914E+01 -0.26309820680E+01  0.54985688327E+01  0.95226317578E+01  0.51100000000E-03 0.  1.
        -12    1    3    3    0    0 -0.50013013765E+00  0.28036022878E+01  0.23350900251E+01  0.36827926046E+01  0.00000000000E+00 0.  1.
</event>
<event>
 7    1  0.9175399E-010  0.4778727E+02  0.7816164E-02  0.1312668E+00
        -11   -1    0    0    0    0  0.00000000000E+00  0.00000000000E+00  0.45593999997E+02  0.45594000000E+02  0.51100000000E-03 0. -1.
         11   -1    0    0    0    0 -0.00000000000E+00 -0.00000000000E+00 -0.45593999997E+02  0.45594000000E+02  0.51100000000E-03 0.  1.
    9900012    2    1    2    0    0  0.20571608268E+02  0.34607656949E+02  0.16209330089E+02  0.47787269958E+02  0.19999995049E+02 0.  0.
        -12    1    1    2    0    0 -0.20571608268E+02 -0.34607656949E+02 -0.16209330089E+02  0.43400730042E+02  0.00000000000E+00 0.  1.
         11    1    3    3    0    0  0.16033994518E+02  0.12164244891E+02  0.10383819811E+02  0.22646888265E+02  0.51100000000E-03 0. -1.
        -11    1    3    3    0    0  0.16594806824E+01  0.20095837782E+02  0.28158112094E+01  0.20359896005E+02  0.51100000000E-03 0.  1.
        -12    1    3    3    0    0  0.28781330672E+01  0.23475742760E+01  0.30096990687E+01  0.47804856885E+01  0.00000000000E+00 0.  1.
</event>
<event>
 7    1  0.9175399E-010  0.4778727E+02  0.7816164E-02  0.1312668E+00
        -11   -1    0    0    0    0  0.00000000000E+00  0.00000000000E+00  0.45593999997E+02  0.45594000000E+02  0.51100000000E-03 0. -1.
         11   -1    0    0    0    0 -0.00000000000E+00 -0.00000000000E+00 -0.45593999997E+02  0.45594000000E+02  0.51100000000E-03 0.  1.
    9900012    2    1    2    0    0  0.14336499881E+02  0.40559885461E+01  0.40763183294E+02  0.47787269774E+02  0.19999994206E+02 0.  0.
        -12    1    1    2    0    0 -0.14336499881E+02 -0.40559885461E+01 -0.40763183294E+02  0.43400730226E+02  0.00000000000E+00 0.  1.
         11    1    3    3    0    0  0.83217413046E+01  0.84139736016E+00  0.17683865909E+02  0.19562168633E+02  0.51100000000E-03 0. -1.
        -11    1    3    3    0    0  0.64428271381E+01  0.76625590684E+01  0.90292203673E+01  0.13481530095E+02  0.51100000000E-03 0.  1.
        -12    1    3    3    0    0 -0.42806856210E+00 -0.44479678824E+01  0.14050097017E+02  0.14743571046E+02  0.00000000000E+00 0.  1.
</event>
<event>
 7    1  0.9175399E-010  0.4778726E+02  0.7816164E-02  0.1312668E+00
        -11   -1    0    0    0    0  0.00000000000E+00  0.00000000000E+00  0.45593999997E+02  0.45594000000E+02  0.51100000000E-03 0. -1.
         11   -1    0    0    0    0 -0.00000000000E+00 -0.00000000000E+00 -0.45593999997E+02  0.45594000000E+02  0.51100000000E-03 0.  1.
    9900012    2    1    2    0    0  0.13979838470E+02 -0.11397576560E+01 -0.41071755563E+02  0.47787262262E+02  0.19999959955E+02 0.  0.
         12    1    1    2    0    0 -0.13979838470E+02  0.11397576560E+01  0.41071755563E+02  0.43400737738E+02  0.00000000000E+00 0. -1.
         11    1    3    3    0    0  0.10500964861E+02  0.67450929831E+01 -0.35078924740E+02  0.37233016310E+02  0.51100000000E-03 0. -1.
        -11    1    3    3    0    0  0.22376897162E+01 -0.37369078059E+01 -0.31318555773E+01  0.53647231834E+01  0.51100000000E-03 0.  1.
         12    1    3    3    0    0  0.12411838929E+01 -0.41479428332E+01 -0.28609752467E+01  0.51895227685E+01  0.00000000000E+00 0. -1.
</event>
<event>
 7    1  0.9175399E-010  0.4778727E+02  0.7816164E-02  0.1312668E+00
        -11   -1    0    0    0    0  0.00000000000E+00  0.00000000000E+00  0.45593999997E+02  0.45594000000E+02  0.51100000000E-03 0.  1.
         11   -1    0    0    0    0 -0.00000000000E+00 -0.00000000000E+00 -0.45593999997E+02  0.45594000000E+02  0.51100000000E-03 0. -1.
    9900012    2    1    2    0    0 -0.19533665047E+02  0.36792739077E+02  0.12180055814E+02  0.47787268686E+02  0.19999989247E+02 0.  0.
         12    1    1    2    0    0  0.19533665047E+02 -0.36792739077E+02 -0.12180055814E+02  0.43400731314E+02  0.00000000000E+00 0. -1.
         11    1    3    3    0    0  0.12718080663E+01  0.81200863444E+01 -0.26503527931E+01  0.86358362760E+01  0.51100000000E-03 0. -1.
        -11    1    3    3    0    0 -0.14971520293E+02  0.24641926462E+02  0.13868881009E+02  0.31995575012E+02  0.51100000000E-03 0.  1.
         12    1    3    3    0    0 -0.58339528209E+01  0.40307262705E+01  0.96152759823E+00  0.71558573984E+01  0.00000000000E+00 0. -1.
</event>
<event>
 7    1  0.9175399E-010  0.4778727E+02  0.7816164E-02  0.1312668E+00
        -11   -1    0    0    0    0  0.00000000000E+00  0.00000000000E+00  0.45593999997E+02  0.45594000000E+02  0.51100000000E-03 0. -1.
         11   -1    0    0    0    0 -0.00000000000E+00 -0.00000000000E+00 -0.45593999997E+02  0.45594000000E+02  0.51100000000E-03 0.  1.
    9900012    2    1    2    0    0 -0.79483707024E+01 -0.34340040947E+02 -0.25322096187E+02  0.47787267698E+02  0.19999984741E+02 0.  0.
         12    1    1    2    0    0  0.79483707024E+01  0.34340040947E+02  0.25322096187E+02  0.43400732302E+02  0.00000000000E+00 0. -1.
         11    1    3    3    0    0 -0.22257876392E+01 -0.18209299946E+02 -0.23568418340E+02  0.29866420583E+02  0.51100000000E-03 0. -1.
        -11    1    3    3    0    0 -0.19911024412E+01 -0.28081117141E+01 -0.21876696046E+01  0.40787104445E+01  0.51100000000E-03 0.  1.
         12    1    3    3    0    0 -0.37314806221E+01 -0.13322629287E+02  0.43399175775E+00  0.13842136670E+02  0.00000000000E+00 0. -1.
</event>
<event>
 7    1  0.9175399E-010  0.4778726E+02  0.7816164E-02  0.1312668E+00
        -11   -1    0    0    0    0  0.00000000000E+00  0.00000000000E+00  0.45593999997E+02  0.45594000000E+02  0.51100000000E-03 0.  1.
         11   -1    0    0    0    0 -0.00000000000E+00 -0.00000000000E+00 -0.45593999997E+02  0.45594000000E+02  0.51100000000E-03 0. -1.
    9900012    2    1    2    0    0 -0.24629961690E+02 -0.35392249354E+02 -0.49373795441E+01  0.47787262173E+02  0.19999959551E+02 0.  0.
        -12    1    1    2    0    0  0.24629961690E+02  0.35392249354E+02  0.49373795441E+01  0.43400737827E+02  0.00000000000E+00 0.  1.
         11    1    3    3    0    0  0.10278336375E+00 -0.61359483001E+01 -0.43570306810E+01  0.75262303033E+01  0.51100000000E-03 0. -1.
        -11    1    3    3    0    0 -0.24036752958E+02 -0.21454232974E+02 -0.20794850942E+01  0.32285815211E+02  0.51100000000E-03 0.  1.
        -12    1    3    3    0    0 -0.69599209517E+00 -0.78020680798E+01  0.14991362311E+01  0.79752166590E+01  0.00000000000E+00 0.  1.
</event>
<event>
 7    1  0.9175399E-010  0.4778728E+02  0.7816164E-02  0.1312668E+00
        -11   -1    0    0    0    0  0.00000000000E+00  0.00000000000E+00  0.45593999997E+02  0.45594000000E+02  0.51100000000E-03 0. -1.
         11   -1    0    0    0    0 -0.00000000000E+00 -0.00000000000E+00 -0.45593999997E+02  0.45594000000E+02  0.51100000000E-03 0.  1.
    9900012    2    1    2    0    0 -0.66888797696E+01  0.23728642709E+02  0.35718808491E+02  0.47787275612E+02  0.20000020825E+02 0.  0.
        -12    1    1    2    0    0  0.66888797696E+01 -0.23728642709E+02 -0.35718808491E+02  0.43400724388E+02  0.00000000000E+00 0.  1.
         11    1    3    3    0    0 -0.29688061428E+00  0.21073411907E+02  0.17094186222E+02  0.27136470484E+02  0.51100000000E-03 0. -1.
        -11    1    3    3    0    0 -0.77873693408E+00 -0.39072918165E+00  0.93471957309E+01  0.93877137152E+01  0.51100000000E-03 0.  1.
         12    1    3    3    0    0 -0.56132622213E+01  0.30459599836E+01  0.92774265383E+01  0.11263091412E+02  0.00000000000E+00 0. -1.
</event>
<event>
 7    1  0.9175399E-010  0.4778727E+02  0.7816164E-02  0.1312668E+00
        -11   -1    0    0    0    0  0.00000000000E+00  0.00000000000E+00  0.45593999997E+02  0.45594000000E+02  0.51100000000E-03 0. -1.
         11   -1    0    0    0    0 -0.00000000000E+00 -0.00000000000E+00 -0.45593999997E+02  0.45594000000E+02  0.51100000000E-03 0.  1.
    9900012    2    1    2    0    0 -0.21564896533E+01  0.39486486542E+02  0.17882680810E+02  0.47787270282E+02  0.19999996526E+02 0.  0.
        -12    1    1    2    0    0  0.21564896533E+01 -0.39486486542E+02 -0.17882680810E+02  0.43400729718E+02  0.00000000000E+00 0.  1.
         11    1    3    3    0    0 -0.59166345518E+01  0.33477481256E+02  0.68727177233E+01  0.34684039051E+02  0.51100000000E-03 0. -1.
        -11    1    3    3    0    0  0.19627821432E+01  0.33321766910E+01  0.56071119285E+01  0.68114330124E+01  0.51100000000E-03 0.  1.
         12    1    3    3    0    0  0.17973627553E+01  0.26768285946E+01  0.54028511581E+01  0.62917982195E+01  0.00000000000E+00 0. -1.
</event>
<event>
 7    1  0.9175399E-010  0.4778727E+02  0.7816164E-02  0.1312668E+00
        -11   -1    0    0    0    0  0.00000000000E+00  0.00000000000E+00  0.45593999997E+02  0.45594000000E+02  0.51100000000E-03 0. -1.
         11   -1    0    0    0    0 -0.00000000000E+00 -0.00000000000E+00 -0.45593999997E+02  0.45594000000E+02  0.51100000000E-03 0.  1.
    9900012    2    1    2    0    0 -0.22772177711E+02 -0.12704597162E+02 -0.34693580070E+02  0.47787269997E+02  0.19999995224E+02 0.  0.
         12    1    1    2    0    0  0.22772177711E+02  0.12704597162E+02  0.34693580070E+02  0.43400730003E+02  0.00000000000E+00 0. -1.
         11    1    3    3    0    0  0.17161589044E+01  0.17483635618E+01 -0.56053397599E+01  0.61173368891E+01  0.51100000000E-03 0. -1.
        -11    1    3    3    0    0 -0.16743193799E+02 -0.84212581121E+01 -0.12950337852E+02  0.22780767711E+02  0.51100000000E-03 0.  1.
        -12    1    3    3    0    0 -0.77451428168E+01 -0.60317026114E+01 -0.16137902458E+02  0.18889165397E+02  0.00000000000E+00 0.  1.
</event>
<event>
 7    1  0.9175399E-010  0.4778727E+02  0.7816164E-02  0.1312668E+00
        -11   -1    0    0    0    0  0.00000000000E+00  0.00000000000E+00  0.45593999997E+02  0.45594000000E+02  0.51100000000E-03 0. -1.
         11   -1    0    0    0    0 -0.00000000000E+00 -0.00000000000E+00 -0.45593999997E+02  0.45594000000E+02  0.51100000000E-03 0.  1.
    9900012    2    1    2    0    0 -0.13388618599E+02 -0.14430473773E+02  0.38679834983E+02  0.47787270564E+02  0.19999997808E+02 0.  0.
        -12    1    1    2    0    0  0.13388618599E+02  0.14430473773E+02 -0.38679834983E+02  0.43400729436E+02  0.00000000000E+00 0.  1.
         11    1    3    3    0    0 -0.12033622147E+02 -0.14286105251E+02  0.32998856534E+02  0.37918668200E+02  0.51100000000E-03 0. -1.
        -11    1    3    3    0    0  0.29270386488E+01  0.15431460284E+01  0.33530373849E+01  0.47108083045E+01  0.51100000000E-03 0.  1.
         12    1    3    3    0    0 -0.42820351008E+01 -0.16875145502E+01  0.23279410637E+01  0.51577940593E+01  0.00000000000E+00 0. -1.
</event>
<event>
 7    1  0.9175399E-010  0.4778727E+02  0.7816164E-02  0.1312668E+00
        -11   -1    0    0    0    0  0.00000000000E+00  0.00000000000E+00  0.45593999997E+02  0.45594000000E+02  0.51100000000E-03 0. -1.
         11   -1    0    0    0    0 -0.00000000000E+00 -0.00000000000E+00 -0.45593999997E+02  0.45594000000E+02  0.51100000000E-03 0.  1.
    9900012    2    1    2    0    0 -0.12695355914E+02 -0.32167735107E+02  0.26223808908E+02  0.47787269622E+02  0.19999993514E+02 0.  0.
        -12    1    1    2    0    0  0.12695355914E+02  0.32167735107E+02 -0.26223808908E+02  0.43400730378E+02  0.00000000000E+00 0.  1.
         11    1    3    3    0    0 -0.26325213380E+01 -0.75285690072E+01 -0.62789627224E-01  0.79758048302E+01  0.51100000000E-03 0. -1.
        -11    1    3    3    0    0 -0.12715470006E+01 -0.13219288106E+02  0.51818962570E+01  0.14255471191E+02  0.51100000000E-03 0.  1.
         12    1    3    3    0    0 -0.87912875756E+01 -0.11419877994E+02  0.21104702279E+02  0.25555993600E+02  0.00000000000E+00 0. -1.
</event>
<event>
 7    1  0.9175399E-010  0.4778727E+02  0.7816164E-02  0.1312668E+00
        -11   -1    0    0    0    0  0.00000000000E+00  0.00000000000E+00  0.45593999997E+02  0.45594000000E+02  0.51100000000E-03 0.  1.
         11   -1    0    0    0    0 -0.00000000000E+00 -0.00000000000E+00 -0.45593999997E+02  0.45594000000E+02  0.51100000000E-03 0. -1.
    9900012    2    1    2    0    0  0.42866285822E+02 -0.57573842257E+01  0.35996230528E+01  0.47787271672E+02  0.20000002860E+02 0.  0.
        -12    1    1    2    0    0 -0.42866285822E+02  0.57573842257E+01 -0.35996230528E+01  0.43400728328E+02  0.00000000000E+00 0.  1.
         11    1    3    3    0    0  0.20792908232E+02 -0.39451064156E+01 -0.51487982811E+01  0.21781162076E+02  0.51100000000E-03 0. -1.
        -11    1    3    3    0    0  0.26401543526E+01 -0.83885988992E+00  0.56645540857E+01  0.63056541430E+01  0.51100000000E-03 0.  1.
        -12    1    3    3    0    0  0.19433223237E+02 -0.97341792018E+00  0.30838672482E+01  0.19700455453E+02  0.00000000000E+00 0.  1.
</event>
<event>
 7    1  0.9175399E-010  0.4778727E+02  0.7816164E-02  0.1312668E+00
        -11   -1    0    0    0    0  0.00000000000E+00  0.00000000000E+00  0.45593999997E+02  0.45594000000E+02  0.51100000000E-03 0. -1.
         11   -1    0    0    0    0 -0.00000000000E+00 -0.00000000000E+00 -0.45593999997E+02  0.45594000000E+02  0.51100000000E-03 0.  1.
    9900012    2    1    2    0    0 -0.19262221055E+02  0.11237514185E+02 -0.37233165640E+02  0.47787268340E+02  0.19999987669E+02 0.  0.
         12    1    1    2    0    0  0.19262221055E+02 -0.11237514185E+02  0.37233165640E+02  0.43400731660E+02  0.00000000000E+00 0. -1.
         11    1    3    3    0    0 -0.54978026680E+01  0.63081049388E+01 -0.13054374156E+02  0.15505957144E+02  0.51100000000E-03 0.  1.
        -11    1    3    3    0    0  0.23056825497E+01  0.34360760420E+01 -0.14079708366E+01  0.43709464335E+01  0.51100000000E-03 0. -1.
        -12    1    3    3    0    0 -0.16070100937E+02  0.14933332040E+01 -0.22770820648E+02  0.27910364762E+02  0.00000000000E+00 0.  1.
</event>
<event>
 7    1  0.9175399E-010  0.4778727E+02  0.7816164E-02  0.1312668E+00
        -11   -1    0    0    0    0  0.00000000000E+00  0.00000000000E+00  0.45593999997E+02  0.45594000000E+02  0.51100000000E-03 0. -1.
         11   -1    0    0    0    0 -0.00000000000E+00 -0.00000000000E+00 -0.45593999997E+02  0.45594000000E+02  0.51100000000E-03 0.  1.
    9900012    2    1    2    0    0  0.13432234874E+02  0.10357789613E+02 -0.39948895694E+02  0.47787274124E+02  0.20000014040E+02 0.  0.
         12    1    1    2    0    0 -0.13432234874E+02 -0.10357789613E+02  0.39948895694E+02  0.43400725876E+02  0.00000000000E+00 0. -1.
         11    1    3    3    0    0 -0.14293378801E+01  0.88845106594E+01 -0.20823647151E+02  0.22684836728E+02  0.51100000000E-03 0.  1.
        -11    1    3    3    0    0  0.13275058798E+02  0.19270479006E+01 -0.19232924285E+02  0.23448796910E+02  0.51100000000E-03 0. -1.
        -12    1    3    3    0    0  0.15865139561E+01 -0.45376894680E+00  0.10767574231E+00  0.16536404856E+01  0.00000000000E+00 0.  1.
</event>
<event>
 7    1  0.9175399E-010  0.4778727E+02  0.7816164E-02  0.1312668E+00
        -11   -1    0    0    0    0  0.00000000000E+00  0.00000000000E+00  0.45593999997E+02  0.45594000000E+02  0.51100000000E-03 0.  1.
         11   -1    0    0    0    0 -0.00000000000E+00 -0.00000000000E+00 -0.45593999997E+02  0.45594000000E+02  0.51100000000E-03 0. -1.
    9900012    2    1    2    0    0 -0.41153108105E+02 -0.12387991983E+02  0.60483500345E+01  0.47787272008E+02  0.20000004394E+02 0.  0.
        -12    1    1    2    0    0  0.41153108105E+02  0.12387991983E+02 -0.60483500345E+01  0.43400727992E+02  0.00000000000E+00 0.  1.
         11    1    3    3    0    0 -0.17015251771E+02 -0.11781120127E+02 -0.66357192520E-01  0.20695844699E+02  0.51100000000E-03 0. -1.
        -11    1    3    3    0    0 -0.35730734177E+01  0.10751573227E+01  0.52486422372E+01  0.64398029870E+01  0.51100000000E-03 0.  1.
        -12    1    3    3    0    0 -0.20564782917E+02 -0.16820291781E+01  0.86606498977E+00  0.20651624322E+02  0.00000000000E+00 0.  1.
</event>
<event>
 7    1  0.9175399E-010  0.4778727E+02  0.7816164E-02  0.1312668E+00
        -11   -1    0    0    0    0  0.00000000000E+00  0.00000000000E+00  0.45593999997E+02  0.45594000000E+02  0.51100000000E-03 0. -1.
         11   -1    0    0    0    0 -0.00000000000E+00 -0.00000000000E+00 -0.45593999997E+02  0.45594000000E+02  0.51100000000E-03 0.  1.
    9900012    2    1    2    0    0 -0.35366449979E+02 -0.47504328554E+01  0.24703661258E+02  0.47787271021E+02  0.19999999891E+02 0.  0.
        -12    1    1    2    0    0  0.35366449979E+02  0.47504328554E+01 -0.24703661258E+02  0.43400728979E+02  0.00000000000E+00 0.  1.
         11    1    3    3    0    0  0.47762017347E+00 -0.36217532812E+01  0.27618220700E+01  0.45796156244E+01  0.51100000000E-03 0.  1.
        -11    1    3    3    0    0 -0.19495209779E+02 -0.45688821091E+01  0.84505858521E+01  0.21733621179E+02  0.51100000000E-03 0. -1.
         12    1    3    3    0    0 -0.16348860373E+02  0.34402025348E+01  0.13491253336E+02  0.21474034217E+02  0.00000000000E+00 0. -1.
</event>
<event>
 7    1  0.9175399E-010  0.4778727E+02  0.7816164E-02  0.1312668E+00
        -11   -1    0    0    0    0  0.00000000000E+00  0.00000000000E+00  0.45593999997E+02  0.45594000000E+02  0.51100000000E-03 0. -1.
         11   -1    0    0    0    0 -0.00000000000E+00 -0.00000000000E+00 -0.45593999997E+02  0.45594000000E+02  0.51100000000E-03 0.  1.
    9900012    2    1    2    0    0 -0.65194791790E+01  0.62424174812E+01  0.42451760717E+02  0.47787269905E+02  0.19999994805E+02 0.  0.
        -12    1    1    2    0    0  0.65194791790E+01 -0.62424174812E+01 -0.42451760717E+02  0.43400730095E+02  0.00000000000E+00 0.  1.
         11    1    3    3    0    0 -0.10754544868E+01 -0.24609654682E+01  0.30885603987E+01  0.40929401396E+01  0.51100000000E-03 0. -1.
        -11    1    3    3    0    0 -0.13559943495E+01 -0.47220286012E+01  0.93527704609E+01  0.10564591348E+02  0.51100000000E-03 0.  1.
        -12    1    3    3    0    0 -0.40880303427E+01  0.13425411551E+02  0.30010429858E+02  0.33129738418E+02  0.00000000000E+00 0.  1.
</event>
<event>
 7    1  0.9175399E-010  0.4778724E+02  0.7816164E-02  0.1312668E+00
        -11   -1    0    0    0    0  0.00000000000E+00  0.00000000000E+00  0.45593999997E+02  0.45594000000E+02  0.51100000000E-03 0. -1.
         11   -1    0    0    0    0 -0.00000000000E+00 -0.00000000000E+00 -0.45593999997E+02  0.45594000000E+02  0.51100000000E-03 0.  1.
    9900012    2    1    2    0    0  0.27985965172E+02  0.33109663901E+02 -0.20401579537E+01  0.47787235782E+02  0.19999839224E+02 0.  0.
        -12    1    1    2    0    0 -0.27985965172E+02 -0.33109663901E+02  0.20401579537E+01  0.43400764218E+02  0.00000000000E+00 0.  1.
         11    1    3    3    0    0  0.60495827721E+01  0.14476836942E+02  0.53465182511E+01  0.16575931866E+02  0.51100000000E-03 0. -1.
        -11    1    3    3    0    0  0.22472931625E+02  0.16320057442E+02 -0.76879424948E+01  0.28818074030E+02  0.51100000000E-03 0.  1.
        -12    1    3    3    0    0 -0.53654922513E+00  0.23127695173E+01  0.30126628999E+00  0.23932298863E+01  0.00000000000E+00 0.  1.
</event>
<event>
 7    1  0.1123036E-009  0.4778727E+02  0.7816164E-02  0.1312668E+00
        -11   -1    0    0    0    0  0.00000000000E+00  0.00000000000E+00  0.45593999997E+02  0.45594000000E+02  0.51100000000E-03 0. -1.
         11   -1    0    0    0    0 -0.00000000000E+00 -0.00000000000E+00 -0.45593999997E+02  0.45594000000E+02  0.51100000000E-03 0.  1.
    9900012    2    1    2    0    0 -0.33847760556E+02 -0.19864774075E+02 -0.18529526204E+02  0.47787268611E+02  0.19999988906E+02 0.  0.
         12    1    1    2    0    0  0.33847760556E+02  0.19864774075E+02  0.18529526204E+02  0.43400731389E+02  0.00000000000E+00 0. -1.
         11    1    3    3    0    0 -0.69860397023E+01 -0.10626033193E+02 -0.91138196480E-02  0.12716816247E+02  0.51100000000E-03 0. -1.
        -11    1    3    3    0    0 -0.20305552721E+02 -0.10641274232E+02 -0.12794358621E+02  0.26253529312E+02  0.51100000000E-03 0.  1.
         12    1    3    3    0    0 -0.65561681328E+01  0.14025333502E+01 -0.57260537641E+01  0.88169230513E+01  0.00000000000E+00 0. -1.
</event>
<event>
 7    1  0.9175399E-010  0.4778725E+02  0.7816164E-02  0.1312668E+00
        -11   -1    0    0    0    0  0.00000000000E+00  0.00000000000E+00  0.45593999997E+02  0.45594000000E+02  0.51100000000E-03 0. -1.
         11   -1    0    0    0    0 -0.00000000000E+00 -0.00000000000E+00 -0.45593999997E+02  0.45594000000E+02  0.51100000000E-03 0.  1.
    9900012    2    1    2    0    0  0.15264865835E+02  0.13440078294E+02 -0.38340229485E+02  0.47787250807E+02  0.19999907730E+02 0.  0.
         12    1    1    2    0    0 -0.15264865835E+02 -0.13440078294E+02  0.38340229485E+02  0.43400749193E+02  0.00000000000E+00 0. -1.
         11    1    3    3    0    0  0.31328134495E+01  0.16884437250E+00  0.60716413586E+00  0.31955714795E+01  0.51100000000E-03 0. -1.
        -11    1    3    3    0    0  0.14525613577E+02  0.10261283412E+02 -0.33431114650E+02  0.37867226120E+02  0.51100000000E-03 0.  1.
        -12    1    3    3    0    0 -0.23935611913E+01  0.30099505098E+01 -0.55162789712E+01  0.67244532073E+01  0.00000000000E+00 0.  1.
</event>
<event>
 7    1  0.9175399E-010  0.4778727E+02  0.7816164E-02  0.1312668E+00
        -11   -1    0    0    0    0  0.00000000000E+00  0.00000000000E+00  0.45593999997E+02  0.45594000000E+02  0.51100000000E-03 0.  1.
         11   -1    0    0    0    0 -0.00000000000E+00 -0.00000000000E+00 -0.45593999997E+02  0.45594000000E+02  0.51100000000E-03 0. -1.
    9900012    2    1    2    0    0  0.67098463154E+01 -0.30404292292E+02  0.30235414758E+02  0.47787270364E+02  0.19999996898E+02 0.  0.
        -12    1    1    2    0    0 -0.67098463154E+01  0.30404292292E+02 -0.30235414758E+02  0.43400729636E+02  0.00000000000E+00 0.  1.
         11    1    3    3    0    0  0.23040952577E+01 -0.25635148100E+02  0.13662999456E+02  0.29140130876E+02  0.51100000000E-03 0. -1.
        -11    1    3    3    0    0  0.11806651904E+01  0.12435533996E+01  0.29724729476E+01  0.34316163881E+01  0.51100000000E-03 0.  1.
         12    1    3    3    0    0  0.32250858674E+01 -0.60126975919E+01  0.13599942354E+02  0.15215523100E+02  0.00000000000E+00 0. -1.
</event>
<event>
 7    1  0.9175399E-010  0.4778727E+02  0.7816164E-02  0.1312668E+00
        -11   -1    0    0    0    0  0.00000000000E+00  0.00000000000E+00  0.45593999997E+02  0.45594000000E+02  0.51100000000E-03 0. -1.
         11   -1    0    0    0    0 -0.00000000000E+00 -0.00000000000E+00 -0.45593999997E+02  0.45594000000E+02  0.51100000000E-03 0.  1.
    9900012    2    1    2    0    0 -0.70707696232E+01  0.22260306170E+02  0.36580136807E+02  0.47787269330E+02  0.19999992185E+02 0.  0.
        -12    1    1    2    0    0  0.70707696232E+01 -0.22260306170E+02 -0.36580136807E+02  0.43400730670E+02  0.00000000000E+00 0.  1.
         11    1    3    3    0    0 -0.11540983472E+02  0.91517610924E+01  0.17592169308E+02  0.22944137635E+02  0.51100000000E-03 0. -1.
        -11    1    3    3    0    0  0.27880842007E+01  0.13037768425E+02  0.12994070057E+02  0.18617268219E+02  0.51100000000E-03 0.  1.
        -12    1    3    3    0    0  0.16821296481E+01  0.70776652729E-01  0.59938974418E+01  0.62258634767E+01  0.00000000000E+00 0.  1.
</event>
<event>
 7    1  0.9175399E-010  0.4778727E+02  0.7816164E-02  0.1312668E+00
        -11   -1    0    0    0    0  0.00000000000E+00  0.00000000000E+00  0.45593999997E+02  0.45594000000E+02  0.51100000000E-03 0. -1.
         11   -1    0    0    0    0 -0.00000000000E+00 -0.00000000000E+00 -0.45593999997E+02  0.45594000000E+02  0.51100000000E-03 0.  1.
    9900012    2    1    2    0    0  0.71728216920E+01  0.26455624025E+02  0.33649280061E+02  0.47787268874E+02  0.19999990106E+02 0.  0.
        -12    1    1    2    0    0 -0.71728216920E+01 -0.26455624025E+02 -0.33649280061E+02  0.43400731126E+02  0.00000000000E+00 0.  1.
         11    1    3    3    0    0  0.13875849735E+01  0.14536255721E+02  0.27545584364E+02  0.31176711511E+02  0.51100000000E-03 0. -1.
        -11    1    3    3    0    0 -0.12914264391E+01  0.16837022348E+01 -0.92963848538E+00  0.23166491831E+01  0.51100000000E-03 0.  1.
         12    1    3    3    0    0  0.70766631576E+01  0.10235666069E+02  0.70333341831E+01  0.14293908180E+02  0.00000000000E+00 0. -1.
</event>
<event>
 7    1  0.9175399E-010  0.4778729E+02  0.7816164E-02  0.1312668E+00
        -11   -1    0    0    0    0  0.00000000000E+00  0.00000000000E+00  0.45593999997E+02  0.45594000000E+02  0.51100000000E-03 0. -1.
         11   -1    0    0    0    0 -0.00000000000E+00 -0.00000000000E+00 -0.45593999997E+02  0.45594000000E+02  0.51100000000E-03 0.  1.
    9900012    2    1    2    0    0 -0.23001749119E+02 -0.18977626816E+02 -0.31533959026E+02  0.47787293163E+02  0.20000100848E+02 0.  0.
         12    1    1    2    0    0  0.23001749119E+02  0.18977626816E+02  0.31533959026E+02  0.43400706837E+02  0.00000000000E+00 0. -1.
         11    1    3    3    0    0 -0.11735515784E+01 -0.28308814777E+01 -0.95366299987E+01  0.10016906970E+02  0.51100000000E-03 0. -1.
        -11    1    3    3    0    0 -0.19559243808E+02 -0.17162155979E+02 -0.14321335262E+02  0.29701923509E+02  0.51100000000E-03 0.  1.
        -12    1    3    3    0    0 -0.22689537328E+01  0.10154106406E+01 -0.76759937650E+01  0.80684626844E+01  0.00000000000E+00 0.  1.
</event>
<event>
 7    1  0.9175399E-010  0.4778727E+02  0.7816164E-02  0.1312668E+00
        -11   -1    0    0    0    0  0.00000000000E+00  0.00000000000E+00  0.45593999997E+02  0.45594000000E+02  0.51100000000E-03 0. -1.
         11   -1    0    0    0    0 -0.00000000000E+00 -0.00000000000E+00 -0.45593999997E+02  0.45594000000E+02  0.51100000000E-03 0.  1.
    9900012    2    1    2    0    0 -0.19311870555E+02 -0.17008405876E+01 -0.38830172725E+02  0.47787268245E+02  0.19999987234E+02 0.  0.
         12    1    1    2    0    0  0.19311870555E+02  0.17008405876E+01  0.38830172725E+02  0.43400731755E+02  0.00000000000E+00 0. -1.
         11    1    3    3    0    0  0.18285248618E+01 -0.64251313274E+00 -0.60075082089E+01  0.63124069448E+01  0.51100000000E-03 0. -1.
        -11    1    3    3    0    0 -0.17153229387E+02 -0.67075268716E+01 -0.23087604239E+02  0.29534076334E+02  0.51100000000E-03 0.  1.
        -12    1    3    3    0    0 -0.39871660302E+01  0.56491994167E+01 -0.97350602772E+01  0.11940784966E+02  0.00000000000E+00 0.  1.
</event>
<event>
 7    1  0.9175399E-010  0.4778727E+02  0.7816164E-02  0.1312668E+00
        -11   -1    0    0    0    0  0.00000000000E+00  0.00000000000E+00  0.45593999997E+02  0.45594000000E+02  0.51100000000E-03 0. -1.
         11   -1    0    0    0    0 -0.00000000000E+00 -0.00000000000E+00 -0.45593999997E+02  0.45594000000E+02  0.51100000000E-03 0.  1.
    9900012    2    1    2    0    0  0.23687197130E+02  0.29687762138E+02  0.21004209883E+02  0.47787270035E+02  0.19999995399E+02 0.  0.
        -12    1    1    2    0    0 -0.23687197130E+02 -0.29687762138E+02 -0.21004209883E+02  0.43400729965E+02  0.00000000000E+00 0.  1.
         11    1    3    3    0    0  0.15419042994E+02  0.17632461913E+02  0.17580102088E+02  0.29286696462E+02  0.51100000000E-03 0. -1.
        -11    1    3    3    0    0  0.83405224949E+01  0.48331665839E+01 -0.15048942968E+01  0.97564605171E+01  0.51100000000E-03 0.  1.
        -12    1    3    3    0    0 -0.72368359234E-01  0.72221336420E+01  0.49290020913E+01  0.87441130561E+01  0.00000000000E+00 0.  1.
</event>
<event>
 7    1  0.9175399E-010  0.4778728E+02  0.7816164E-02  0.1312668E+00
        -11   -1    0    0    0    0  0.00000000000E+00  0.00000000000E+00  0.45593999997E+02  0.45594000000E+02  0.51100000000E-03 0.  1.
         11   -1    0    0    0    0 -0.00000000000E+00 -0.00000000000E+00 -0.45593999997E+02  0.45594000000E+02  0.51100000000E-03 0. -1.
    9900012    2    1    2    0    0  0.32658219729E+01 -0.25840855524E+02  0.34716091601E+02  0.47787280842E+02  0.20000044669E+02 0.  0.
        -12    1    1    2    0    0 -0.32658219729E+01  0.25840855524E+02 -0.34716091601E+02  0.43400719158E+02  0.00000000000E+00 0.  1.
         11    1    3    3    0    0  0.35931521326E+01 -0.15213764715E+02  0.19350616238E+02  0.24876007077E+02  0.51100000000E-03 0. -1.
        -11    1    3    3    0    0 -0.49438521228E+01 -0.44275675886E+00  0.83407955956E+01  0.97060073557E+01  0.51100000000E-03 0.  1.
        -12    1    3    3    0    0  0.46165219631E+01 -0.10184334050E+02  0.70246797676E+01  0.13205266409E+02  0.00000000000E+00 0.  1.
</event>
<event>
 7    1  0.9175399E-010  0.4778727E+02  0.7816164E-02  0.1312668E+00
        -11   -1    0    0    0    0  0.00000000000E+00  0.00000000000E+00  0.45593999997E+02  0.45594000000E+02  0.51100000000E-03 0. -1.
         11   -1    0    0    0    0 -0.00000000000E+00 -0.00000000000E+00 -0.45593999997E+02  0.45594000000E+02  0.51100000000E-03 0.  1.
    9900012    2    1    2    0    0 -0.10562362209E+02 -0.95577726104E+01 -0.40996448801E+02  0.47787270432E+02  0.19999997208E+02 0.  0.
         12    1    1    2    0    0  0.10562362209E+02  0.95577726104E+01  0.40996448801E+02  0.43400729568E+02  0.00000000000E+00 0. -1.
         11    1    3    3    0    0 -0.64310553432E+00  0.30604307666E+01 -0.15164896148E+02  0.15483988396E+02  0.51100000000E-03 0. -1.
        -11    1    3    3    0    0 -0.75394680500E+01 -0.13655733765E+02 -0.25190623962E+02  0.29629211583E+02  0.51100000000E-03 0.  1.
        -12    1    3    3    0    0 -0.23797886247E+01  0.10375303881E+01 -0.64092869169E+00  0.26740704539E+01  0.00000000000E+00 0.  1.
</event>
<event>
 7    1  0.9175399E-010  0.4778728E+02  0.7816164E-02  0.1312668E+00
        -11   -1    0    0    0    0  0.00000000000E+00  0.00000000000E+00  0.45593999997E+02  0.45594000000E+02  0.51100000000E-03 0. -1.
         11   -1    0    0    0    0 -0.00000000000E+00 -0.00000000000E+00 -0.45593999997E+02  0.45594000000E+02  0.51100000000E-03 0.  1.
    9900012    2    1    2    0    0  0.23532557574E+02  0.20813661407E+02 -0.29943830567E+02  0.47787277009E+02  0.20000027193E+02 0.  0.
         12    1    1    2    0    0 -0.23532557574E+02 -0.20813661407E+02  0.29943830567E+02  0.43400722991E+02  0.00000000000E+00 0. -1.
         11    1    3    3    0    0  0.17459324637E+01  0.35184948964E+01 -0.30479490024E+00  0.39396683485E+01  0.51100000000E-03 0. -1.
        -11    1    3    3    0    0  0.11343687262E+01 -0.30522502567E+01 -0.21999221942E+01  0.39297177963E+01  0.51100000000E-03 0.  1.
        -12    1    3    3    0    0  0.20652256384E+02  0.20347416767E+02 -0.27439113473E+02  0.39917890864E+02  0.00000000000E+00 0.  1.
</event>
<event>
 7    1  0.9175399E-010  0.4778727E+02  0.7816164E-02  0.1312668E+00
        -11   -1    0    0    0    0  0.00000000000E+00  0.00000000000E+00  0.45593999997E+02  0.45594000000E+02  0.51100000000E-03 0. -1.
         11   -1    0    0    0    0 -0.00000000000E+00 -0.00000000000E+00 -0.45593999997E+02  0.45594000000E+02  0.51100000000E-03 0.  1.
    9900012    2    1    2    0    0 -0.35405210095E+02  0.15092795680E+02 -0.20057457361E+02  0.47787274441E+02  0.20000015486E+02 0.  0.
         12    1    1    2    0    0  0.35405210095E+02 -0.15092795680E+02  0.20057457361E+02  0.43400725559E+02  0.00000000000E+00 0. -1.
         11    1    3    3    0    0 -0.41897237419E+01 -0.45256834518E+01 -0.92088574370E+00  0.62356737048E+01  0.51100000000E-03 0. -1.
        -11    1    3    3    0    0 -0.26937938124E+02  0.16974479812E+02 -0.16912595016E+02  0.36053035180E+02  0.51100000000E-03 0.  1.
         12    1    3    3    0    0 -0.42775482283E+01  0.26439993197E+01 -0.22239766017E+01  0.54985655559E+01  0.00000000000E+00 0. -1.
</event>
<event>
 7    1  0.9175399E-010  0.4778727E+02  0.7816164E-02  0.1312668E+00
        -11   -1    0    0    0    0  0.00000000000E+00  0.00000000000E+00  0.45593999997E+02  0.45594000000E+02  0.51100000000E-03 0. -1.
         11   -1    0    0    0    0 -0.00000000000E+00 -0.00000000000E+00 -0.45593999997E+02  0.45594000000E+02  0.51100000000E-03 0.  1.
    9900012    2    1    2    0    0  0.15429731623E+02 -0.17263346345E+02  0.36708626390E+02  0.47787274241E+02  0.20000014573E+02 0.  0.
        -12    1    1    2    0    0 -0.15429731623E+02  0.17263346345E+02 -0.36708626390E+02  0.43400725759E+02  0.00000000000E+00 0.  1.
         11    1    3    3    0    0 -0.24460536387E+01 -0.49576468326E+01  0.83852314264E+01  0.10043582372E+02  0.51100000000E-03 0.  1.
        -11    1    3    3    0    0 -0.73309056057E+00 -0.40571487923E+01  0.23536196719E+01  0.47473575717E+01  0.51100000000E-03 0. -1.
         12    1    3    3    0    0  0.18608875822E+02 -0.82485507206E+01  0.25969775292E+02  0.32996334297E+02  0.00000000000E+00 0. -1.
</event>
<event>
 7    1  0.9175399E-010  0.4778724E+02  0.7816164E-02  0.1312668E+00
        -11   -1    0    0    0    0  0.00000000000E+00  0.00000000000E+00  0.45593999997E+02  0.45594000000E+02  0.51100000000E-03 0. -1.
         11   -1    0    0    0    0 -0.00000000000E+00 -0.00000000000E+00 -0.45593999997E+02  0.45594000000E+02  0.51100000000E-03 0.  1.
    9900012    2    1    2    0    0  0.21500960965E+02  0.28734845162E+02  0.24405802597E+02  0.47787241374E+02  0.19999864719E+02 0.  0.
        -12    1    1    2    0    0 -0.21500960965E+02 -0.28734845162E+02 -0.24405802597E+02  0.43400758626E+02  0.00000000000E+00 0.  1.
         11    1    3    3    0    0  0.47832981669E+01  0.43238106981E+01  0.31606866274E+01  0.71808927387E+01  0.51100000000E-03 0. -1.
        -11    1    3    3    0    0  0.19177140450E+02  0.14697738217E+02  0.17801303050E+02  0.30011208158E+02  0.51100000000E-03 0.  1.
        -12    1    3    3    0    0 -0.24594776523E+01  0.97132962475E+01  0.34438129197E+01  0.10595140478E+02  0.00000000000E+00 0.  1.
</event>
<event>
 7    1  0.9175399E-010  0.4778727E+02  0.7816164E-02  0.1312668E+00
        -11   -1    0    0    0    0  0.00000000000E+00  0.00000000000E+00  0.45593999997E+02  0.45594000000E+02  0.51100000000E-03 0. -1.
         11   -1    0    0    0    0 -0.00000000000E+00 -0.00000000000E+00 -0.45593999997E+02  0.45594000000E+02  0.51100000000E-03 0.  1.
    9900012    2    1    2    0    0  0.28211239479E+02 -0.25875948780E+02 -0.20449556143E+02  0.47787272994E+02  0.20000008889E+02 0.  0.
         12    1    1    2    0    0 -0.28211239479E+02  0.25875948780E+02  0.20449556143E+02  0.43400727006E+02  0.00000000000E+00 0. -1.
         11    1    3    3    0    0  0.36491237087E+01 -0.47068586082E+01 -0.10993972985E+02  0.12503522066E+02  0.51100000000E-03 0. -1.
        -11    1    3    3    0    0  0.24002014651E+02 -0.16781087270E+02 -0.66077595577E+01  0.30022726124E+02  0.51100000000E-03 0.  1.
        -12    1    3    3    0    0  0.56010111887E+00 -0.43880029025E+01 -0.28478236001E+01  0.52610248045E+01  0.00000000000E+00 0.  1.
</event>
<event>
 7    1  0.9175399E-010  0.4778727E+02  0.7816164E-02  0.1312668E+00
        -11   -1    0    0    0    0  0.00000000000E+00  0.00000000000E+00  0.45593999997E+02  0.45594000000E+02  0.51100000000E-03 0. -1.
         11   -1    0    0    0    0 -0.00000000000E+00 -0.00000000000E+00 -0.45593999997E+02  0.45594000000E+02  0.51100000000E-03 0.  1.
    9900012    2    1    2    0    0  0.60887291849E+00  0.13472465905E+02  0.41252213649E+02  0.47787271956E+02  0.20000004157E+02 0.  0.
        -12    1    1    2    0    0 -0.60887291849E+00 -0.13472465905E+02 -0.41252213649E+02  0.43400728044E+02  0.00000000000E+00 0.  1.
         11    1    3    3    0    0  0.76311261746E+01  0.64134664253E+01  0.16736274365E+02  0.19479977365E+02  0.51100000000E-03 0. -1.
        -11    1    3    3    0    0 -0.68856752932E+01  0.19081522336E+01  0.68240878409E+01  0.98803716687E+01  0.51100000000E-03 0.  1.
         12    1    3    3    0    0 -0.13657796292E+00  0.51508472462E+01  0.17691851443E+02  0.18426922922E+02  0.00000000000E+00 0. -1.
</event>
<event>
 7    1  0.9175399E-010  0.4778727E+02  0.7816164E-02  0.1312668E+00
        -11   -1    0    0    0    0  0.00000000000E+00  0.00000000000E+00  0.45593999997E+02  0.45594000000E+02  0.51100000000E-03 0. -1.
         11   -1    0    0    0    0 -0.00000000000E+00 -0.00000000000E+00 -0.45593999997E+02  0.45594000000E+02  0.51100000000E-03 0.  1.
    9900012    2    1    2    0    0  0.24018607341E+02 -0.57617481877E+01 -0.35686576632E+02  0.47787274286E+02  0.20000014779E+02 0.  0.
         12    1    1    2    0    0 -0.24018607341E+02  0.57617481877E+01  0.35686576632E+02  0.43400725714E+02  0.00000000000E+00 0. -1.
         11    1    3    3    0    0  0.23371563369E+02 -0.34660333619E+01 -0.33439795279E+02  0.40944636647E+02  0.51100000000E-03 0.  1.
        -11    1    3    3    0    0 -0.12761757816E+00 -0.39609193564E+01 -0.28934756758E-01  0.39630803518E+01  0.51100000000E-03 0. -1.
         12    1    3    3    0    0  0.77466155049E+00  0.16652045306E+01 -0.22178465966E+01  0.28795572876E+01  0.00000000000E+00 0. -1.
</event>
<event>
 7    1  0.9175399E-010  0.4778727E+02  0.7816164E-02  0.1312668E+00
        -11   -1    0    0    0    0  0.00000000000E+00  0.00000000000E+00  0.45593999997E+02  0.45594000000E+02  0.51100000000E-03 0. -1.
         11   -1    0    0    0    0 -0.00000000000E+00 -0.00000000000E+00 -0.45593999997E+02  0.45594000000E+02  0.51100000000E-03 0.  1.
    9900012    2    1    2    0    0 -0.31868591245E+02 -0.97605868295E+01 -0.27798329541E+02  0.47787270876E+02  0.19999999232E+02 0.  0.
         12    1    1    2    0    0  0.31868591245E+02  0.97605868295E+01  0.27798329541E+02  0.43400729124E+02  0.00000000000E+00 0. -1.
         11    1    3    3    0    0 -0.26696119259E+02 -0.52679485787E+01 -0.12627269604E+02  0.29998033330E+02  0.51100000000E-03 0. -1.
        -11    1    3    3    0    0 -0.25764934028E+01  0.33399758799E+00 -0.97131957786E+01  0.10054652910E+02  0.51100000000E-03 0.  1.
         12    1    3    3    0    0 -0.25959785829E+01 -0.48266358389E+01 -0.54578641586E+01  0.77345846364E+01  0.00000000000E+00 0. -1.
</event>
<event>
 7    1  0.9175399E-010  0.4778727E+02  0.7816164E-02  0.1312668E+00
        -11   -1    0    0    0    0  0.00000000000E+00  0.00000000000E+00  0.45593999997E+02  0.45594000000E+02  0.51100000000E-03 0. -1.
         11   -1    0    0    0    0 -0.00000000000E+00 -0.00000000000E+00 -0.45593999997E+02  0.45594000000E+02  0.51100000000E-03 0.  1.
    9900012    2    1    2    0    0 -0.19567311913E+02 -0.21566227227E+02  0.32181381116E+02  0.47787272554E+02  0.20000006881E+02 0.  0.
        -12    1    1    2    0    0  0.19567311913E+02  0.21566227227E+02 -0.32181381116E+02  0.43400727446E+02  0.00000000000E+00 0.  1.
         11    1    3    3    0    0 -0.57449370847E+01 -0.65575758982E+01  0.15956553386E+01  0.88629690279E+01  0.51100000000E-03 0.  1.
        -11    1    3    3    0    0 -0.14818149926E+02 -0.16565796538E+02  0.28315378544E+02  0.35996719913E+02  0.51100000000E-03 0. -1.
        -12    1    3    3    0    0  0.99577509808E+00  0.15571452084E+01  0.22703472339E+01  0.29275836126E+01  0.00000000000E+00 0.  1.
</event>
<event>
 7    1  0.9175399E-010  0.4778727E+02  0.7816164E-02  0.1312668E+00
        -11   -1    0    0    0    0  0.00000000000E+00  0.00000000000E+00  0.45593999997E+02  0.45594000000E+02  0.51100000000E-03 0. -1.
         11   -1    0    0    0    0 -0.00000000000E+00 -0.00000000000E+00 -0.45593999997E+02  0.45594000000E+02  0.51100000000E-03 0.  1.
    9900012    2    1    2    0    0 -0.26034189322E+02 -0.70334321012E+01  0.34005517208E+02  0.47787269807E+02  0.19999994356E+02 0.  0.
        -12    1    1    2    0    0  0.26034189322E+02  0.70334321012E+01 -0.34005517208E+02  0.43400730193E+02  0.00000000000E+00 0.  1.
         11    1    3    3    0    0  0.15726239709E+01 -0.12275051095E+01  0.11347613212E+02  0.11521642280E+02  0.51100000000E-03 0. -1.
        -11    1    3    3    0    0 -0.22473362415E+02 -0.42260257131E+01  0.19367235733E+02  0.29966667011E+02  0.51100000000E-03 0.  1.
         12    1    3    3    0    0 -0.51334508780E+01 -0.15799012786E+01  0.32906682631E+01  0.62989605162E+01  0.00000000000E+00 0. -1.
</event>
<event>
 7    1  0.9175399E-010  0.4778727E+02  0.7816164E-02  0.1312668E+00
        -11   -1    0    0    0    0  0.00000000000E+00  0.00000000000E+00  0.45593999997E+02  0.45594000000E+02  0.51100000000E-03 0. -1.
         11   -1    0    0    0    0 -0.00000000000E+00 -0.00000000000E+00 -0.45593999997E+02  0.45594000000E+02  0.51100000000E-03 0.  1.
    9900012    2    1    2    0    0  0.14930902706E+02 -0.27822361646E+02  0.29775955070E+02  0.47787272316E+02  0.20000005799E+02 0.  0.
        -12    1    1    2    0    0 -0.14930902706E+02  0.27822361646E+02 -0.29775955070E+02  0.43400727684E+02  0.00000000000E+00 0.  1.
         11    1    3    3    0    0  0.14241959053E+02 -0.10590151582E+02  0.14557747949E+02  0.22954579800E+02  0.51100000000E-03 0. -1.
        -11    1    3    3    0    0  0.78869250688E+00 -0.13867440731E+02  0.62077153435E+01  0.15213930404E+02  0.51100000000E-03 0.  1.
        -12    1    3    3    0    0 -0.99748854002E-01 -0.33647693325E+01  0.90104917777E+01  0.96187621122E+01  0.00000000000E+00 0.  1.
</event>
<event>
 7    1  0.9175399E-010  0.4778728E+02  0.7816164E-02  0.1312668E+00
        -11   -1    0    0    0    0  0.00000000000E+00  0.00000000000E+00  0.45593999997E+02  0.45594000000E+02  0.51100000000E-03 0. -1.
         11   -1    0    0    0    0 -0.00000000000E+00 -0.00000000000E+00 -0.45593999997E+02  0.45594000000E+02  0.51100000000E-03 0.  1.
    9900012    2    1    2    0    0  0.15940686912E+02  0.37302156388E+02  0.15429402095E+02  0.47787276280E+02  0.20000023870E+02 0.  0.
        -12    1    1    2    0    0 -0.15940686912E+02 -0.37302156388E+02 -0.15429402095E+02  0.43400723720E+02  0.00000000000E+00 0.  1.
         11    1    3    3    0    0  0.98457133920E+01  0.30887900639E+02  0.59530866107E+01  0.32961185029E+02  0.51100000000E-03 0. -1.
        -11    1    3    3    0    0  0.64680869577E+01  0.17225821290E+01  0.57095307354E+01  0.87978508491E+01  0.51100000000E-03 0.  1.
        -12    1    3    3    0    0 -0.37311343761E+00  0.46916736201E+01  0.37667847489E+01  0.60282404016E+01  0.00000000000E+00 0.  1.
</event>
<event>
 7    1  0.9175399E-010  0.4778728E+02  0.7816164E-02  0.1312668E+00
        -11   -1    0    0    0    0  0.00000000000E+00  0.00000000000E+00  0.45593999997E+02  0.45594000000E+02  0.51100000000E-03 0. -1.
         11   -1    0    0    0    0 -0.00000000000E+00 -0.00000000000E+00 -0.45593999997E+02  0.45594000000E+02  0.51100000000E-03 0.  1.
    9900012    2    1    2    0    0  0.78766769305E+01 -0.12601785653E+02  0.40777147908E+02  0.47787276128E+02  0.20000023178E+02 0.  0.
        -12    1    1    2    0    0 -0.78766769305E+01  0.12601785653E+02 -0.40777147908E+02  0.43400723872E+02  0.00000000000E+00 0.  1.
         11    1    3    3    0    0  0.19584671172E+01 -0.83978215993E+01  0.46098290101E+01  0.97780123147E+01  0.51100000000E-03 0.  1.
        -11    1    3    3    0    0 -0.22434298597E+01 -0.74124268694E+00  0.12807023662E+02  0.13023143768E+02  0.51100000000E-03 0. -1.
         12    1    3    3    0    0  0.81616396731E+01 -0.34627213663E+01  0.23360295236E+02  0.24986120045E+02  0.00000000000E+00 0. -1.
</event>
<event>
 7    1  0.9175399E-010  0.4778727E+02  0.7816164E-02  0.1312668E+00
        -11   -1    0    0    0    0  0.00000000000E+00  0.00000000000E+00  0.45593999997E+02  0.45594000000E+02  0.51100000000E-03 0. -1.
         11   -1    0    0    0    0 -0.00000000000E+00 -0.00000000000E+00 -0.45593999997E+02  0.45594000000E+02  0.51100000000E-03 0.  1.
    9900012    2    1    2    0    0 -0.24545030138E+02  0.27244218320E+01  0.35689529454E+02  0.47787268538E+02  0.19999988570E+02 0.  0.
        -12    1    1    2    0    0  0.24545030138E+02 -0.27244218320E+01 -0.35689529454E+02  0.43400731462E+02  0.00000000000E+00 0.  1.
         11    1    3    3    0    0 -0.89039528421E+01  0.83608543641E+01  0.74736797716E+01  0.14319223146E+02  0.51100000000E-03 0.  1.
        -11    1    3    3    0    0 -0.14559840319E+02 -0.69307189162E+01  0.26745865890E+02  0.31230836641E+02  0.51100000000E-03 0. -1.
         12    1    3    3    0    0 -0.10812369768E+01  0.12942863841E+01  0.14699837923E+01  0.22372087506E+01  0.00000000000E+00 0. -1.
</event>
<event>
 7    1  0.9175399E-010  0.4778726E+02  0.7816164E-02  0.1312668E+00
        -11   -1    0    0    0    0  0.00000000000E+00  0.00000000000E+00  0.45593999997E+02  0.45594000000E+02  0.51100000000E-03 0. -1.
         11   -1    0    0    0    0 -0.00000000000E+00 -0.00000000000E+00 -0.45593999997E+02  0.45594000000E+02  0.51100000000E-03 0.  1.
    9900012    2    1    2    0    0 -0.26380963575E+02 -0.61863078222E+01 -0.33902779765E+02  0.47787261304E+02  0.19999955588E+02 0.  0.
         12    1    1    2    0    0  0.26380963575E+02  0.61863078222E+01  0.33902779765E+02  0.43400738696E+02  0.00000000000E+00 0. -1.
         11    1    3    3    0    0 -0.93142887456E+01 -0.17102164778E+01 -0.16485984856E+02  0.19012325270E+02  0.51100000000E-03 0. -1.
        -11    1    3    3    0    0 -0.52066368499E+01  0.32761222169E+01  0.21522800856E+00  0.61553527457E+01  0.51100000000E-03 0.  1.
        -12    1    3    3    0    0 -0.11860037979E+02 -0.77522135613E+01 -0.17632022917E+02  0.22619583288E+02  0.00000000000E+00 0.  1.
</event>
<event>
 7    1  0.9175399E-010  0.4778727E+02  0.7816164E-02  0.1312668E+00
        -11   -1    0    0    0    0  0.00000000000E+00  0.00000000000E+00  0.45593999997E+02  0.45594000000E+02  0.51100000000E-03 0. -1.
         11   -1    0    0    0    0 -0.00000000000E+00 -0.00000000000E+00 -0.45593999997E+02  0.45594000000E+02  0.51100000000E-03 0.  1.
    9900012    2    1    2    0    0 -0.34956795256E+02  0.25460637187E+02 -0.36608345873E+01  0.47787270854E+02  0.19999999132E+02 0.  0.
        -12    1    1    2    0    0  0.34956795256E+02 -0.25460637187E+02  0.36608345873E+01  0.43400729146E+02  0.00000000000E+00 0.  1.
         11    1    3    3    0    0 -0.70319135712E+01  0.87014201962E+01  0.47843719333E+01  0.12167692343E+02  0.51100000000E-03 0. -1.
        -11    1    3    3    0    0 -0.24428929367E+02  0.93334887945E+01 -0.45870115476E+01  0.26550466630E+02  0.51100000000E-03 0.  1.
        -12    1    3    3    0    0 -0.34959523179E+01  0.74257281960E+01 -0.38581949729E+01  0.90691118804E+01  0.00000000000E+00 0.  1.
</event>
<event>
 7    1  0.9175399E-010  0.4778729E+02  0.7816164E-02  0.1312668E+00
        -11   -1    0    0    0    0  0.00000000000E+00  0.00000000000E+00  0.45593999997E+02  0.45594000000E+02  0.51100000000E-03 0. -1.
         11   -1    0    0    0    0 -0.00000000000E+00 -0.00000000000E+00 -0.45593999997E+02  0.45594000000E+02  0.51100000000E-03 0.  1.
    9900012    2    1    2    0    0 -0.33594140767E+02  0.24425007885E+02 -0.12588656448E+02  0.47787290614E+02  0.20000089225E+02 0.  0.
         12    1    1    2    0    0  0.33594140767E+02 -0.24425007885E+02  0.12588656448E+02  0.43400709386E+02  0.00000000000E+00 0. -1.
         11    1    3    3    0    0 -0.49363250697E+01  0.21631714039E+01 -0.11467002133E+01  0.55101304302E+01  0.51100000000E-03 0. -1.
        -11    1    3    3    0    0 -0.24085979301E+02  0.22414688193E+02 -0.34681987353E+01  0.33084453273E+02  0.51100000000E-03 0.  1.
        -12    1    3    3    0    0 -0.45718363963E+01 -0.15285171195E+00 -0.79737574993E+01  0.91927069103E+01  0.00000000000E+00 0.  1.
</event>
<event>
 7    1  0.9175399E-010  0.4778725E+02  0.7816164E-02  0.1312668E+00
        -11   -1    0    0    0    0  0.00000000000E+00  0.00000000000E+00  0.45593999997E+02  0.45594000000E+02  0.51100000000E-03 0. -1.
         11   -1    0    0    0    0 -0.00000000000E+00 -0.00000000000E+00 -0.45593999997E+02  0.45594000000E+02  0.51100000000E-03 0.  1.
    9900012    2    1    2    0    0  0.10626596317E+02  0.12926875620E+02  0.40044932879E+02  0.47787247566E+02  0.19999892953E+02 0.  0.
        -12    1    1    2    0    0 -0.10626596317E+02 -0.12926875620E+02 -0.40044932879E+02  0.43400752434E+02  0.00000000000E+00 0.  1.
         11    1    3    3    0    0  0.91616039798E+01 -0.23523146245E+01  0.22818119937E+02  0.24700910293E+02  0.51100000000E-03 0. -1.
        -11    1    3    3    0    0  0.53702813454E+00  0.88336656971E+01  0.95700189518E+01  0.13034849898E+02  0.51100000000E-03 0.  1.
         12    1    3    3    0    0  0.92796420235E+00  0.64455245472E+01  0.76567939900E+01  0.10051487375E+02  0.00000000000E+00 0. -1.
</event>
<event>
 7    1  0.9175399E-010  0.4778727E+02  0.7816164E-02  0.1312668E+00
        -11   -1    0    0    0    0  0.00000000000E+00  0.00000000000E+00  0.45593999997E+02  0.45594000000E+02  0.51100000000E-03 0.  1.
         11   -1    0    0    0    0 -0.00000000000E+00 -0.00000000000E+00 -0.45593999997E+02  0.45594000000E+02  0.51100000000E-03 0. -1.
    9900012    2    1    2    0    0  0.15313918170E+02 -0.40590197670E+02  0.12420609181E+01  0.47787274754E+02  0.20000016913E+02 0.  0.
         12    1    1    2    0    0 -0.15313918170E+02  0.40590197670E+02 -0.12420609181E+01  0.43400725246E+02  0.00000000000E+00 0. -1.
         11    1    3    3    0    0  0.14951958471E+02 -0.18488815191E+02 -0.38520342351E+01  0.24088078323E+02  0.51100000000E-03 0. -1.
        -11    1    3    3    0    0  0.12225839809E+01 -0.82889522509E+01 -0.12567180800E+01  0.84723539587E+01  0.51100000000E-03 0.  1.
         12    1    3    3    0    0 -0.86062428242E+00 -0.13812430228E+02  0.63508132331E+01  0.15226842472E+02  0.00000000000E+00 0. -1.
</event>
<event>
 7    1  0.9175399E-010  0.4778728E+02  0.7816164E-02  0.1312668E+00
        -11   -1    0    0    0    0  0.00000000000E+00  0.00000000000E+00  0.45593999997E+02  0.45594000000E+02  0.51100000000E-03 0. -1.
         11   -1    0    0    0    0 -0.00000000000E+00 -0.00000000000E+00 -0.45593999997E+02  0.45594000000E+02  0.51100000000E-03 0.  1.
    9900012    2    1    2    0    0 -0.24961108042E+02  0.29421409161E+01 -0.35382335469E+02  0.47787276837E+02  0.20000026409E+02 0.  0.
         12    1    1    2    0    0  0.24961108042E+02 -0.29421409161E+01  0.35382335469E+02  0.43400723163E+02  0.00000000000E+00 0. -1.
         11    1    3    3    0    0 -0.21090147212E+02  0.72932631263E+01 -0.26030499137E+02  0.34286628327E+02  0.51100000000E-03 0.  1.
        -11    1    3    3    0    0 -0.19760374403E+01  0.18798837210E+01 -0.98945612548E+00  0.29013290843E+01  0.51100000000E-03 0. -1.
         12    1    3    3    0    0 -0.18949233905E+01 -0.62310059313E+01 -0.83623802059E+01  0.10599319425E+02  0.00000000000E+00 0. -1.
</event>
<event>
 7    1  0.9175399E-010  0.4778728E+02  0.7816164E-02  0.1312668E+00
        -11   -1    0    0    0    0  0.00000000000E+00  0.00000000000E+00  0.45593999997E+02  0.45594000000E+02  0.51100000000E-03 0. -1.
         11   -1    0    0    0    0 -0.00000000000E+00 -0.00000000000E+00 -0.45593999997E+02  0.45594000000E+02  0.51100000000E-03 0.  1.
    9900012    2    1    2    0    0  0.14085657168E+02 -0.32951451064E+02  0.24483031870E+02  0.47787277487E+02  0.20000029376E+02 0.  0.
        -12    1    1    2    0    0 -0.14085657168E+02  0.32951451064E+02 -0.24483031870E+02  0.43400722513E+02  0.00000000000E+00 0.  1.
         11    1    3    3    0    0  0.16201168084E+02 -0.21634343392E+02  0.19106439721E+02  0.33099527192E+02  0.51100000000E-03 0. -1.
        -11    1    3    3    0    0 -0.14037407336E+01 -0.10766263000E+02  0.69384923092E+01  0.12885091494E+02  0.51100000000E-03 0.  1.
         12    1    3    3    0    0 -0.71177018231E+00 -0.55084467252E+00 -0.15619001598E+01  0.18026588015E+01  0.00000000000E+00 0. -1.
</event>
<event>
 7    1  0.9175399E-010  0.4778727E+02  0.7816164E-02  0.1312668E+00
        -11   -1    0    0    0    0  0.00000000000E+00  0.00000000000E+00  0.45593999997E+02  0.45594000000E+02  0.51100000000E-03 0. -1.
         11   -1    0    0    0    0 -0.00000000000E+00 -0.00000000000E+00 -0.45593999997E+02  0.45594000000E+02  0.51100000000E-03 0.  1.
    9900012    2    1    2    0    0 -0.36672679122E+02 -0.23043111322E+02 -0.27843862064E+01  0.47787272127E+02  0.20000004934E+02 0.  0.
         12    1    1    2    0    0  0.36672679122E+02  0.23043111322E+02  0.27843862064E+01  0.43400727873E+02  0.00000000000E+00 0. -1.
         11    1    3    3    0    0 -0.55230286485E+01 -0.20970319246E+00 -0.55429228690E+01  0.78276315111E+01  0.51100000000E-03 0. -1.
        -11    1    3    3    0    0 -0.22739601660E+02 -0.12324832451E+02  0.49171445505E+01  0.26328108352E+02  0.51100000000E-03 0.  1.
        -12    1    3    3    0    0 -0.84100488133E+01 -0.10508575679E+02 -0.21586078880E+01  0.13631532264E+02  0.00000000000E+00 0.  1.
</event>
<event>
 7    1  0.9175399E-010  0.4778727E+02  0.7816164E-02  0.1312668E+00
        -11   -1    0    0    0    0  0.00000000000E+00  0.00000000000E+00  0.45593999997E+02  0.45594000000E+02  0.51100000000E-03 0. -1.
         11   -1    0    0    0    0 -0.00000000000E+00 -0.00000000000E+00 -0.45593999997E+02  0.45594000000E+02  0.51100000000E-03 0.  1.
    9900012    2    1    2    0    0 -0.26731129055E+02 -0.20942489421E+02  0.27027429807E+02  0.47787273212E+02  0.20000009883E+02 0.  0.
        -12    1    1    2    0    0  0.26731129055E+02  0.20942489421E+02 -0.27027429807E+02  0.43400726788E+02  0.00000000000E+00 0.  1.
         11    1    3    3    0    0 -0.15037182218E+02 -0.39733838928E+01  0.19544146134E+02  0.24977555464E+02  0.51100000000E-03 0. -1.
        -11    1    3    3    0    0 -0.11150871503E+02 -0.14600148755E+02  0.44130437225E+01  0.18893947022E+02  0.51100000000E-03 0.  1.
         12    1    3    3    0    0 -0.54307533424E+00 -0.23689567741E+01  0.30702399509E+01  0.39157707252E+01  0.00000000000E+00 0. -1.
</event>
<event>
 7    1  0.9175399E-010  0.4778727E+02  0.7816164E-02  0.1312668E+00
        -11   -1    0    0    0    0  0.00000000000E+00  0.00000000000E+00  0.45593999997E+02  0.45594000000E+02  0.51100000000E-03 0. -1.
         11   -1    0    0    0    0 -0.00000000000E+00 -0.00000000000E+00 -0.45593999997E+02  0.45594000000E+02  0.51100000000E-03 0.  1.
    9900012    2    1    2    0    0 -0.29859961892E+02  0.48664245508E+01  0.31117900976E+02  0.47787272204E+02  0.20000005285E+02 0.  0.
        -12    1    1    2    0    0  0.29859961892E+02 -0.48664245508E+01 -0.31117900976E+02  0.43400727796E+02  0.00000000000E+00 0.  1.
         11    1    3    3    0    0 -0.22116339701E+02 -0.80644391098E+00  0.18039063983E+02  0.28551543972E+02  0.51100000000E-03 0. -1.
        -11    1    3    3    0    0 -0.47043198620E+01  0.58866856115E+01  0.14129106618E+02  0.16012974331E+02  0.51100000000E-03 0.  1.
        -12    1    3    3    0    0 -0.30393023291E+01 -0.21381714973E+00 -0.10502696241E+01  0.32227539007E+01  0.00000000000E+00 0.  1.
</event>
<event>
 7    1  0.9175399E-010  0.4778727E+02  0.7816164E-02  0.1312668E+00
        -11   -1    0    0    0    0  0.00000000000E+00  0.00000000000E+00  0.45593999997E+02  0.45594000000E+02  0.51100000000E-03 0. -1.
         11   -1    0    0    0    0 -0.00000000000E+00 -0.00000000000E+00 -0.45593999997E+02  0.45594000000E+02  0.51100000000E-03 0.  1.
    9900012    2    1    2    0    0  0.80713986647E+00 -0.73722941695E+01  0.42762376638E+02  0.47787273603E+02  0.20000011665E+02 0.  0.
        -12    1    1    2    0    0 -0.80713986647E+00  0.73722941695E+01 -0.42762376638E+02  0.43400726397E+02  0.00000000000E+00 0.  1.
         11    1    3    3    0    0 -0.71102206711E+01 -0.14395290266E+01  0.10900104743E+02  0.13093500887E+02  0.51100000000E-03 0. -1.
        -11    1    3    3    0    0  0.62480762474E+01 -0.84628440777E+01  0.26838016739E+02  0.28825983582E+02  0.51100000000E-03 0.  1.
        -12    1    3    3    0    0  0.16692842902E+01  0.25300789349E+01  0.50242551552E+01  0.58677891342E+01  0.00000000000E+00 0.  1.
</event>
<event>
 7    1  0.9526334E-010  0.4778727E+02  0.7816164E-02  0.1312668E+00
        -11   -1    0    0    0    0  0.00000000000E+00  0.00000000000E+00  0.45593999997E+02  0.45594000000E+02  0.51100000000E-03 0. -1.
         11   -1    0    0    0    0 -0.00000000000E+00 -0.00000000000E+00 -0.45593999997E+02  0.45594000000E+02  0.51100000000E-03 0.  1.
    9900012    2    1    2    0    0  0.32785115210E+02 -0.28584640059E+01 -0.28294682434E+02  0.47787266713E+02  0.19999980251E+02 0.  0.
         12    1    1    2    0    0 -0.32785115210E+02  0.28584640059E+01  0.28294682434E+02  0.43400733287E+02  0.00000000000E+00 0. -1.
         11    1    3    3    0    0 -0.55342145789E-01 -0.38349043521E+01 -0.60307840696E+01  0.71470211205E+01  0.51100000000E-03 0. -1.
        -11    1    3    3    0    0  0.30163449550E+02 -0.11799812932E+01 -0.21651675941E+02  0.37148635452E+02  0.51100000000E-03 0.  1.
         12    1    3    3    0    0  0.26770078055E+01  0.21564216393E+01 -0.61222242330E+00  0.34916101404E+01  0.00000000000E+00 0. -1.
</event>
<event>
 7    1  0.9175399E-010  0.4778727E+02  0.7816164E-02  0.1312668E+00
        -11   -1    0    0    0    0  0.00000000000E+00  0.00000000000E+00  0.45593999997E+02  0.45594000000E+02  0.51100000000E-03 0. -1.
         11   -1    0    0    0    0 -0.00000000000E+00 -0.00000000000E+00 -0.45593999997E+02  0.45594000000E+02  0.51100000000E-03 0.  1.
    9900012    2    1    2    0    0 -0.72799074329E+01 -0.69898153986E+01  0.42211002047E+02  0.47787271142E+02  0.20000000446E+02 0.  0.
        -12    1    1    2    0    0  0.72799074329E+01  0.69898153986E+01 -0.42211002047E+02  0.43400728858E+02  0.00000000000E+00 0.  1.
         11    1    3    3    0    0 -0.46144671078E+01 -0.10446714451E+02  0.11737369776E+02  0.16376599129E+02  0.51100000000E-03 0. -1.
        -11    1    3    3    0    0 -0.22128132007E+00  0.36420659028E+01  0.26440664147E+02  0.26691240703E+02  0.51100000000E-03 0.  1.
        -12    1    3    3    0    0 -0.24441590050E+01 -0.18516685062E+00  0.40329681235E+01  0.47194313100E+01  0.00000000000E+00 0.  1.
</event>
<event>
 7    1  0.9175399E-010  0.4778727E+02  0.7816164E-02  0.1312668E+00
        -11   -1    0    0    0    0  0.00000000000E+00  0.00000000000E+00  0.45593999997E+02  0.45594000000E+02  0.51100000000E-03 0. -1.
         11   -1    0    0    0    0 -0.00000000000E+00 -0.00000000000E+00 -0.45593999997E+02  0.45594000000E+02  0.51100000000E-03 0.  1.
    9900012    2    1    2    0    0 -0.62271822760E+01 -0.71302228590E+00 -0.42945746912E+02  0.47787269848E+02  0.19999994544E+02 0.  0.
         12    1    1    2    0    0  0.62271822760E+01  0.71302228590E+00  0.42945746912E+02  0.43400730152E+02  0.00000000000E+00 0. -1.
         11    1    3    3    0    0 -0.62805505722E+01  0.17386769787E+01 -0.36316128374E+02  0.36896198902E+02  0.51100000000E-03 0.  1.
        -11    1    3    3    0    0 -0.46282267848E+00  0.25957394124E+01 -0.12230536643E+00  0.26395126051E+01  0.51100000000E-03 0. -1.
        -12    1    3    3    0    0  0.51619097470E+00 -0.50474386770E+01 -0.65073131722E+01  0.82515583402E+01  0.00000000000E+00 0.  1.
</event>
<event>
 7    1  0.9175399E-010  0.4778727E+02  0.7816164E-02  0.1312668E+00
        -11   -1    0    0    0    0  0.00000000000E+00  0.00000000000E+00  0.45593999997E+02  0.45594000000E+02  0.51100000000E-03 0.  1.
         11   -1    0    0    0    0 -0.00000000000E+00 -0.00000000000E+00 -0.45593999997E+02  0.45594000000E+02  0.51100000000E-03 0. -1.
    9900012    2    1    2    0    0  0.17857155003E+02 -0.27223012594E+02 -0.28699355478E+02  0.47787269541E+02  0.19999993147E+02 0.  0.
         12    1    1    2    0    0 -0.17857155003E+02  0.27223012594E+02  0.28699355478E+02  0.43400730459E+02  0.00000000000E+00 0. -1.
         11    1    3    3    0    0  0.84826778095E+00 -0.45490934409E+01 -0.86307475739E+00  0.47073036507E+01  0.51100000000E-03 0. -1.
        -11    1    3    3    0    0  0.73905000612E+01 -0.31350217396E+01 -0.38222748748E+00  0.80370361811E+01  0.51100000000E-03 0.  1.
        -12    1    3    3    0    0  0.96183871611E+01 -0.19538897413E+02 -0.27454053233E+02  0.35042929710E+02  0.00000000000E+00 0.  1.
</event>
<event>
 7    1  0.9175399E-010  0.4778727E+02  0.7816164E-02  0.1312668E+00
        -11   -1    0    0    0    0  0.00000000000E+00  0.00000000000E+00  0.45593999997E+02  0.45594000000E+02  0.51100000000E-03 0. -1.
         11   -1    0    0    0    0 -0.00000000000E+00 -0.00000000000E+00 -0.45593999997E+02  0.45594000000E+02  0.51100000000E-03 0.  1.
    9900012    2    1    2    0    0 -0.28895410775E+00 -0.10679415331E+02  0.42065308494E+02  0.47787267460E+02  0.19999983656E+02 0.  0.
        -12    1    1    2    0    0  0.28895410775E+00  0.10679415331E+02 -0.42065308494E+02  0.43400732540E+02  0.00000000000E+00 0.  1.
         11    1    3    3    0    0 -0.21193806317E+01 -0.72550255747E+01  0.28151714993E+01  0.80655043973E+01  0.51100000000E-03 0. -1.
        -11    1    3    3    0    0  0.20404140353E+01  0.55763447221E+00  0.13705080567E+02  0.13867353001E+02  0.51100000000E-03 0.  1.
         12    1    3    3    0    0 -0.20998751139E+00 -0.39820242290E+01  0.25545056428E+02  0.25854410062E+02  0.00000000000E+00 0. -1.
</event>
<event>
 7    1  0.9175399E-010  0.4778727E+02  0.7816164E-02  0.1312668E+00
        -11   -1    0    0    0    0  0.00000000000E+00  0.00000000000E+00  0.45593999997E+02  0.45594000000E+02  0.51100000000E-03 0. -1.
         11   -1    0    0    0    0 -0.00000000000E+00 -0.00000000000E+00 -0.45593999997E+02  0.45594000000E+02  0.51100000000E-03 0.  1.
    9900012    2    1    2    0    0  0.22712557998E+02  0.34646792426E+02 -0.12936887609E+02  0.47787267550E+02  0.19999984066E+02 0.  0.
         12    1    1    2    0    0 -0.22712557998E+02 -0.34646792426E+02  0.12936887609E+02  0.43400732450E+02  0.00000000000E+00 0. -1.
         11    1    3    3    0    0  0.20971283718E+02  0.17950944512E+02 -0.95489371763E+01  0.29209816006E+02  0.51100000000E-03 0. -1.
        -11    1    3    3    0    0  0.28917974425E+01  0.11823555846E+02  0.58523637460E+00  0.12186117806E+02  0.51100000000E-03 0.  1.
         12    1    3    3    0    0 -0.11505231628E+01  0.48722920677E+01 -0.39731868071E+01  0.63913337376E+01  0.00000000000E+00 0. -1.
</event>
<event>
 7    1  0.9175399E-010  0.4778726E+02  0.7816164E-02  0.1312668E+00
        -11   -1    0    0    0    0  0.00000000000E+00  0.00000000000E+00  0.45593999997E+02  0.45594000000E+02  0.51100000000E-03 0. -1.
         11   -1    0    0    0    0 -0.00000000000E+00 -0.00000000000E+00 -0.45593999997E+02  0.45594000000E+02  0.51100000000E-03 0.  1.
    9900012    2    1    2    0    0 -0.67726836698E+01 -0.15042848466E+02  0.40143093325E+02  0.47787257198E+02  0.19999936870E+02 0.  0.
        -12    1    1    2    0    0  0.67726836698E+01  0.15042848466E+02 -0.40143093325E+02  0.43400742802E+02  0.00000000000E+00 0.  1.
         11    1    3    3    0    0 -0.10882943130E+01  0.49011637944E+01  0.70875329017E+01  0.86855577797E+01  0.51100000000E-03 0.  1.
        -11    1    3    3    0    0 -0.49864251387E+01 -0.17007785578E+02  0.29718627907E+02  0.34602399496E+02  0.51100000000E-03 0. -1.
        -12    1    3    3    0    0 -0.69796421809E+00 -0.29362266821E+01  0.33369325156E+01  0.44992999225E+01  0.00000000000E+00 0.  1.
</event>
<event>
 7    1  0.9175399E-010  0.4778726E+02  0.7816164E-02  0.1312668E+00
        -11   -1    0    0    0    0  0.00000000000E+00  0.00000000000E+00  0.45593999997E+02  0.45594000000E+02  0.51100000000E-03 0. -1.
         11   -1    0    0    0    0 -0.00000000000E+00 -0.00000000000E+00 -0.45593999997E+02  0.45594000000E+02  0.51100000000E-03 0.  1.
    9900012    2    1    2    0    0  0.34014317727E+02  0.25600208906E+02  0.84427514247E+01  0.47787256249E+02  0.19999932542E+02 0.  0.
        -12    1    1    2    0    0 -0.34014317727E+02 -0.25600208906E+02 -0.84427514247E+01  0.43400743751E+02  0.00000000000E+00 0.  1.
         11    1    3    3    0    0  0.10563597335E+02  0.98583688052E+01 -0.50013143415E+01  0.15290198480E+02  0.51100000000E-03 0. -1.
        -11    1    3    3    0    0  0.20700693372E+02  0.16778605580E+02  0.12143153269E+02  0.29283040875E+02  0.51100000000E-03 0.  1.
        -12    1    3    3    0    0  0.27500270201E+01 -0.10367654791E+01  0.13009124975E+01  0.32140168941E+01  0.00000000000E+00 0.  1.
</event>
<event>
 7    1  0.9175399E-010  0.4778727E+02  0.7816164E-02  0.1312668E+00
        -11   -1    0    0    0    0  0.00000000000E+00  0.00000000000E+00  0.45593999997E+02  0.45594000000E+02  0.51100000000E-03 0. -1.
         11   -1    0    0    0    0 -0.00000000000E+00 -0.00000000000E+00 -0.45593999997E+02  0.45594000000E+02  0.51100000000E-03 0.  1.
    9900012    2    1    2    0    0 -0.32198932732E+01  0.15263193533E+02  0.40500497123E+02  0.47787273546E+02  0.20000011407E+02 0.  0.
        -12    1    1    2    0    0  0.32198932732E+01 -0.15263193533E+02 -0.40500497123E+02  0.43400726454E+02  0.00000000000E+00 0.  1.
         11    1    3    3    0    0  0.14405592902E+01  0.14916992040E+02  0.20208513641E+02  0.25159012032E+02  0.51100000000E-03 0. -1.
        -11    1    3    3    0    0  0.24299458969E+01 -0.54309763724E+00  0.28808764685E+01  0.38077607059E+01  0.51100000000E-03 0.  1.
         12    1    3    3    0    0 -0.70903984603E+01  0.88929913109E+00  0.17411107013E+02  0.18820500808E+02  0.00000000000E+00 0. -1.
</event>
<event>
 7    1  0.9175399E-010  0.4778728E+02  0.7816164E-02  0.1312668E+00
        -11   -1    0    0    0    0  0.00000000000E+00  0.00000000000E+00  0.45593999997E+02  0.45594000000E+02  0.51100000000E-03 0. -1.
         11   -1    0    0    0    0 -0.00000000000E+00 -0.00000000000E+00 -0.45593999997E+02  0.45594000000E+02  0.51100000000E-03 0.  1.
    9900012    2    1    2    0    0  0.13757157233E+02  0.12226571594E+02  0.39304881972E+02  0.47787283705E+02  0.20000057726E+02 0.  0.
        -12    1    1    2    0    0 -0.13757157233E+02 -0.12226571594E+02 -0.39304881972E+02  0.43400716295E+02  0.00000000000E+00 0.  1.
         11    1    3    3    0    0  0.14264141884E+02  0.88510978295E+01  0.24068838065E+02  0.29344789019E+02  0.51100000000E-03 0. -1.
        -11    1    3    3    0    0 -0.25073689075E+01  0.54211761995E+00 -0.24566076376E+00  0.25770409046E+01  0.51100000000E-03 0.  1.
         12    1    3    3    0    0  0.20003842563E+01  0.28333561450E+01  0.15481704670E+02  0.15865453782E+02  0.00000000000E+00 0. -1.
</event>
<event>
 7    1  0.9175399E-010  0.4778727E+02  0.7816164E-02  0.1312668E+00
        -11   -1    0    0    0    0  0.00000000000E+00  0.00000000000E+00  0.45593999997E+02  0.45594000000E+02  0.51100000000E-03 0. -1.
         11   -1    0    0    0    0 -0.00000000000E+00 -0.00000000000E+00 -0.45593999997E+02  0.45594000000E+02  0.51100000000E-03 0.  1.
    9900012    2    1    2    0    0  0.48604351746E+01 -0.94585907117E+01  0.42077725766E+02  0.47787265283E+02  0.19999973733E+02 0.  0.
        -12    1    1    2    0    0 -0.48604351746E+01  0.94585907117E+01 -0.42077725766E+02  0.43400734717E+02  0.00000000000E+00 0.  1.
         11    1    3    3    0    0 -0.10244307281E+01 -0.95332504322E+01  0.23520160079E+02  0.25399414413E+02  0.51100000000E-03 0. -1.
        -11    1    3    3    0    0  0.82565501497E+01  0.29238840427E+01  0.13982168582E+02  0.16499113818E+02  0.51100000000E-03 0.  1.
        -12    1    3    3    0    0 -0.23716842470E+01 -0.28492243222E+01  0.45753971043E+01  0.58887370520E+01  0.00000000000E+00 0.  1.
</event>
<event>
 7    1  0.9175399E-010  0.4778727E+02  0.7816164E-02  0.1312668E+00
        -11   -1    0    0    0    0  0.00000000000E+00  0.00000000000E+00  0.45593999997E+02  0.45594000000E+02  0.51100000000E-03 0. -1.
         11   -1    0    0    0    0 -0.00000000000E+00 -0.00000000000E+00 -0.45593999997E+02  0.45594000000E+02  0.51100000000E-03 0.  1.
    9900012    2    1    2    0    0  0.13853587036E+01  0.10087911790E+02  0.42189311097E+02  0.47787272427E+02  0.20000006302E+02 0.  0.
        -12    1    1    2    0    0 -0.13853587036E+01 -0.10087911790E+02 -0.42189311097E+02  0.43400727573E+02  0.00000000000E+00 0.  1.
         11    1    3    3    0    0 -0.24218074572E+01  0.18971325684E+01  0.19448644992E+02  0.19690455953E+02  0.51100000000E-03 0. -1.
        -11    1    3    3    0    0  0.89553685444E+01  0.46195693739E+01  0.15864374899E+02  0.18794079870E+02  0.51100000000E-03 0.  1.
        -12    1    3    3    0    0 -0.51482023836E+01  0.35712098480E+01  0.68762912059E+01  0.93027366033E+01  0.00000000000E+00 0.  1.
</event>
<event>
 7    1  0.9175399E-010  0.4778727E+02  0.7816164E-02  0.1312668E+00
        -11   -1    0    0    0    0  0.00000000000E+00  0.00000000000E+00  0.45593999997E+02  0.45594000000E+02  0.51100000000E-03 0.  1.
         11   -1    0    0    0    0 -0.00000000000E+00 -0.00000000000E+00 -0.45593999997E+02  0.45594000000E+02  0.51100000000E-03 0. -1.
    9900012    2    1    2    0    0  0.42249858282E+02 -0.73733757404E+01  0.66487449060E+01  0.47787274159E+02  0.20000014201E+02 0.  0.
        -12    1    1    2    0    0 -0.42249858282E+02  0.73733757404E+01 -0.66487449060E+01  0.43400725841E+02  0.00000000000E+00 0.  1.
         11    1    3    3    0    0  0.29803374192E+02  0.93403945930E+00 -0.21643844325E+00  0.29818792544E+02  0.51100000000E-03 0. -1.
        -11    1    3    3    0    0  0.13130222030E+02 -0.64581558776E+01  0.59809316387E+01  0.15807657999E+02  0.51100000000E-03 0.  1.
         12    1    3    3    0    0 -0.68373793937E+00 -0.18492593221E+01  0.88425171057E+00  0.21608236156E+01  0.00000000000E+00 0. -1.
</event>
<event>
 7    1  0.9175399E-010  0.4778724E+02  0.7816164E-02  0.1312668E+00
        -11   -1    0    0    0    0  0.00000000000E+00  0.00000000000E+00  0.45593999997E+02  0.45594000000E+02  0.51100000000E-03 0. -1.
         11   -1    0    0    0    0 -0.00000000000E+00 -0.00000000000E+00 -0.45593999997E+02  0.45594000000E+02  0.51100000000E-03 0.  1.
    9900012    2    1    2    0    0 -0.20281274687E+02 -0.69476856636E+01 -0.37736266518E+02  0.47787236761E+02  0.19999843688E+02 0.  0.
         12    1    1    2    0    0  0.20281274687E+02  0.69476856636E+01  0.37736266518E+02  0.43400763239E+02  0.00000000000E+00 0. -1.
         11    1    3    3    0    0 -0.14606445074E+02 -0.16000086171E+01 -0.99352180578E+01  0.17737441286E+02  0.51100000000E-03 0. -1.
        -11    1    3    3    0    0 -0.48053016763E+01 -0.46472241144E+01 -0.28107851165E+02  0.28891848566E+02  0.51100000000E-03 0.  1.
        -12    1    3    3    0    0 -0.86952793714E+00 -0.70045293214E+00  0.30680270515E+00  0.11579469088E+01  0.00000000000E+00 0.  1.
</event>
<event>
 7    1  0.9175399E-010  0.4778726E+02  0.7816164E-02  0.1312668E+00
        -11   -1    0    0    0    0  0.00000000000E+00  0.00000000000E+00  0.45593999997E+02  0.45594000000E+02  0.51100000000E-03 0. -1.
         11   -1    0    0    0    0 -0.00000000000E+00 -0.00000000000E+00 -0.45593999997E+02  0.45594000000E+02  0.51100000000E-03 0.  1.
    9900012    2    1    2    0    0 -0.12247445143E+02  0.10799734277E+02 -0.40211814786E+02  0.47787260129E+02  0.19999950231E+02 0.  0.
         12    1    1    2    0    0  0.12247445143E+02 -0.10799734277E+02  0.40211814786E+02  0.43400739871E+02  0.00000000000E+00 0. -1.
         11    1    3    3    0    0  0.12674655592E+01 -0.98506579078E+00 -0.22546732250E+00  0.16210056541E+01  0.51100000000E-03 0. -1.
        -11    1    3    3    0    0 -0.14284047188E+02  0.43927911688E+01 -0.20978070398E+02  0.25756747780E+02  0.51100000000E-03 0.  1.
        -12    1    3    3    0    0  0.76913648671E+00  0.73920088990E+01 -0.19008277066E+02  0.20409506694E+02  0.00000000000E+00 0.  1.
</event>
<event>
 7    1  0.9175399E-010  0.4778727E+02  0.7816164E-02  0.1312668E+00
        -11   -1    0    0    0    0  0.00000000000E+00  0.00000000000E+00  0.45593999997E+02  0.45594000000E+02  0.51100000000E-03 0. -1.
         11   -1    0    0    0    0 -0.00000000000E+00 -0.00000000000E+00 -0.45593999997E+02  0.45594000000E+02  0.51100000000E-03 0.  1.
    9900012    2    1    2    0    0 -0.15250210186E+01 -0.42703748279E+01  0.43163193316E+02  0.47787273652E+02  0.20000011888E+02 0.  0.
        -12    1    1    2    0    0  0.15250210186E+01  0.42703748279E+01 -0.43163193316E+02  0.43400726348E+02  0.00000000000E+00 0.  1.
         11    1    3    3    0    0 -0.10285242418E+02 -0.16108343133E+01  0.24369867956E+02  0.26500404963E+02  0.51100000000E-03 0. -1.
        -11    1    3    3    0    0  0.51779965952E+01 -0.14961328222E+01  0.65783213767E+01  0.85043738487E+01  0.51100000000E-03 0.  1.
         12    1    3    3    0    0  0.35822248037E+01 -0.11634076924E+01  0.12215003984E+02  0.12782494840E+02  0.00000000000E+00 0. -1.
</event>
<event>
 7    1  0.9175399E-010  0.4778727E+02  0.7816164E-02  0.1312668E+00
        -11   -1    0    0    0    0  0.00000000000E+00  0.00000000000E+00  0.45593999997E+02  0.45594000000E+02  0.51100000000E-03 0. -1.
         11   -1    0    0    0    0 -0.00000000000E+00 -0.00000000000E+00 -0.45593999997E+02  0.45594000000E+02  0.51100000000E-03 0.  1.
    9900012    2    1    2    0    0  0.32562333832E+02  0.24850176722E+02  0.14345250780E+02  0.47787273190E+02  0.20000009783E+02 0.  0.
        -12    1    1    2    0    0 -0.32562333832E+02 -0.24850176722E+02 -0.14345250780E+02  0.43400726810E+02  0.00000000000E+00 0.  1.
         11    1    3    3    0    0  0.23086071874E+00  0.20068182752E+01  0.68102454841E+01  0.71035244826E+01  0.51100000000E-03 0. -1.
        -11    1    3    3    0    0  0.13762013924E+02  0.10713073793E+02  0.62317025765E+00  0.17451398763E+02  0.51100000000E-03 0.  1.
         12    1    3    3    0    0  0.18569459190E+02  0.12130284653E+02  0.69118350378E+01  0.23232349945E+02  0.00000000000E+00 0. -1.
</event>
<event>
 7    1  0.9175399E-010  0.4778727E+02  0.7816164E-02  0.1312668E+00
        -11   -1    0    0    0    0  0.00000000000E+00  0.00000000000E+00  0.45593999997E+02  0.45594000000E+02  0.51100000000E-03 0. -1.
         11   -1    0    0    0    0 -0.00000000000E+00 -0.00000000000E+00 -0.45593999997E+02  0.45594000000E+02  0.51100000000E-03 0.  1.
    9900012    2    1    2    0    0  0.31426920811E+02 -0.25712369901E+02 -0.15324677841E+02  0.47787273411E+02  0.20000010789E+02 0.  0.
         12    1    1    2    0    0 -0.31426920811E+02  0.25712369901E+02  0.15324677841E+02  0.43400726589E+02  0.00000000000E+00 0. -1.
         11    1    3    3    0    0  0.80800447187E+01 -0.14329136935E+02 -0.12805081237E+02  0.20846615881E+02  0.51100000000E-03 0. -1.
        -11    1    3    3    0    0  0.15524176078E+02 -0.40841115145E+01 -0.24704017769E+01  0.16241394490E+02  0.51100000000E-03 0.  1.
         12    1    3    3    0    0  0.78227000136E+01 -0.72991214513E+01 -0.49194827226E-01  0.10699263040E+02  0.00000000000E+00 0. -1.
</event>
<event>
 7    1  0.2471636E-009  0.4778727E+02  0.7816164E-02  0.1312668E+00
        -11   -1    0    0    0    0  0.00000000000E+00  0.00000000000E+00  0.45593999997E+02  0.45594000000E+02  0.51100000000E-03 0. -1.
         11   -1    0    0    0    0 -0.00000000000E+00 -0.00000000000E+00 -0.45593999997E+02  0.45594000000E+02  0.51100000000E-03 0.  1.
    9900012    2    1    2    0    0  0.25039509371E+01 -0.13821429039E+02 -0.41064847962E+02  0.47787269487E+02  0.19999992897E+02 0.  0.
         12    1    1    2    0    0 -0.25039509371E+01  0.13821429039E+02  0.41064847962E+02  0.43400730513E+02  0.00000000000E+00 0. -1.
         11    1    3    3    0    0  0.61337252961E+01 -0.66786289973E+01 -0.51393958649E+01  0.10423054323E+02  0.51100000000E-03 0. -1.
        -11    1    3    3    0    0 -0.14905619531E+01 -0.77585361955E+01 -0.25168669269E+02  0.26379510456E+02  0.51100000000E-03 0.  1.
         12    1    3    3    0    0 -0.21392124060E+01  0.61573615425E+00 -0.10756782828E+02  0.10984704708E+02  0.00000000000E+00 0. -1.
</event>
<event>
 7    1  0.9175399E-010  0.4778730E+02  0.7816164E-02  0.1312668E+00
        -11   -1    0    0    0    0  0.00000000000E+00  0.00000000000E+00  0.45593999997E+02  0.45594000000E+02  0.51100000000E-03 0. -1.
         11   -1    0    0    0    0 -0.00000000000E+00 -0.00000000000E+00 -0.45593999997E+02  0.45594000000E+02  0.51100000000E-03 0.  1.
    9900012    2    1    2    0    0  0.10875004266E+02  0.11957056858E+02 -0.40278830046E+02  0.47787296361E+02  0.20000115426E+02 0.  0.
         12    1    1    2    0    0 -0.10875004266E+02 -0.11957056858E+02  0.40278830046E+02  0.43400703639E+02  0.00000000000E+00 0. -1.
         11    1    3    3    0    0  0.41853439198E+01  0.24870370817E+01 -0.69876716455E-01  0.48690184011E+01  0.51100000000E-03 0. -1.
        -11    1    3    3    0    0 -0.12950374576E+01  0.40754784195E+01 -0.20963103243E+02  0.21394820500E+02  0.51100000000E-03 0.  1.
        -12    1    3    3    0    0  0.79846978036E+01  0.53945413569E+01 -0.19245850087E+02  0.21523457460E+02  0.00000000000E+00 0.  1.
</event>
<event>
 7    1  0.9175399E-010  0.4778727E+02  0.7816164E-02  0.1312668E+00
        -11   -1    0    0    0    0  0.00000000000E+00  0.00000000000E+00  0.45593999997E+02  0.45594000000E+02  0.51100000000E-03 0. -1.
         11   -1    0    0    0    0 -0.00000000000E+00 -0.00000000000E+00 -0.45593999997E+02  0.45594000000E+02  0.51100000000E-03 0.  1.
    9900012    2    1    2    0    0  0.25264631721E+02  0.22907933251E+02  0.26843028838E+02  0.47787271676E+02  0.20000002879E+02 0.  0.
        -12    1    1    2    0    0 -0.25264631721E+02 -0.22907933251E+02 -0.26843028838E+02  0.43400728324E+02  0.00000000000E+00 0.  1.
         11    1    3    3    0    0  0.17425097125E+02  0.20674341445E+02  0.23343129449E+02  0.35720639646E+02  0.51100000000E-03 0. -1.
        -11    1    3    3    0    0  0.53611707607E+01 -0.25473494384E+01  0.64218381760E+00  0.59702212190E+01  0.51100000000E-03 0.  1.
        -12    1    3    3    0    0  0.24783638356E+01  0.47809412451E+01  0.28577155721E+01  0.60964108114E+01  0.00000000000E+00 0.  1.
</event>
<event>
 7    1  0.9175399E-010  0.4778725E+02  0.7816164E-02  0.1312668E+00
        -11   -1    0    0    0    0  0.00000000000E+00  0.00000000000E+00  0.45593999997E+02  0.45594000000E+02  0.51100000000E-03 0. -1.
         11   -1    0    0    0    0 -0.00000000000E+00 -0.00000000000E+00 -0.45593999997E+02  0.45594000000E+02  0.51100000000E-03 0.  1.
    9900012    2    1    2    0    0 -0.11974038130E+02 -0.11358028324E+02  0.40140286932E+02  0.47787250795E+02  0.19999907677E+02 0.  0.
        -12    1    1    2    0    0  0.11974038130E+02  0.11358028324E+02 -0.40140286932E+02  0.43400749205E+02  0.00000000000E+00 0.  1.
         11    1    3    3    0    0 -0.65727359408E+01 -0.43618013023E+01  0.10841983530E+02  0.13408011615E+02  0.51100000000E-03 0. -1.
        -11    1    3    3    0    0 -0.13636531274E+01 -0.11300041092E+02  0.14402690528E+02  0.18357232178E+02  0.51100000000E-03 0.  1.
        -12    1    3    3    0    0 -0.40376490622E+01  0.43038140701E+01  0.14895612874E+02  0.16022007002E+02  0.00000000000E+00 0.  1.
</event>
<event>
 7    1  0.9175399E-010  0.4778728E+02  0.7816164E-02  0.1312668E+00
        -11   -1    0    0    0    0  0.00000000000E+00  0.00000000000E+00  0.45593999997E+02  0.45594000000E+02  0.51100000000E-03 0. -1.
         11   -1    0    0    0    0 -0.00000000000E+00 -0.00000000000E+00 -0.45593999997E+02  0.45594000000E+02  0.51100000000E-03 0.  1.
    9900012    2    1    2    0    0 -0.23375847556E+01 -0.14418078946E+02  0.40869029890E+02  0.47787275269E+02  0.20000019263E+02 0.  0.
        -12    1    1    2    0    0  0.23375847556E+01  0.14418078946E+02 -0.40869029890E+02  0.43400724731E+02  0.00000000000E+00 0.  1.
         11    1    3    3    0    0 -0.39108409002E+01 -0.61623016700E+01  0.12862858193E+02  0.14789244726E+02  0.51100000000E-03 0.  1.
        -11    1    3    3    0    0  0.41168554374E+01 -0.11368855976E+02  0.25602651454E+02  0.28314221632E+02  0.51100000000E-03 0. -1.
        -12    1    3    3    0    0 -0.25435992928E+01  0.31130787003E+01  0.24035202435E+01  0.46838089113E+01  0.00000000000E+00 0.  1.
</event>
<event>
 7    1  0.9175399E-010  0.4778727E+02  0.7816164E-02  0.1312668E+00
        -11   -1    0    0    0    0  0.00000000000E+00  0.00000000000E+00  0.45593999997E+02  0.45594000000E+02  0.51100000000E-03 0. -1.
         11   -1    0    0    0    0 -0.00000000000E+00 -0.00000000000E+00 -0.45593999997E+02  0.45594000000E+02  0.51100000000E-03 0.  1.
    9900012    2    1    2    0    0  0.32139820958E+02  0.46452273342E+01  0.28793698457E+02  0.47787270754E+02  0.19999998677E+02 0.  0.
        -12    1    1    2    0    0 -0.32139820958E+02 -0.46452273342E+01 -0.28793698457E+02  0.43400729246E+02  0.00000000000E+00 0.  1.
         11    1    3    3    0    0  0.11208003580E+02  0.67724021439E+01  0.20796366127E+02  0.24575874744E+02  0.51100000000E-03 0. -1.
        -11    1    3    3    0    0  0.18123359512E+02 -0.35049686540E+01  0.79083656606E+01  0.20081912582E+02  0.51100000000E-03 0.  1.
         12    1    3    3    0    0  0.28084578659E+01  0.13777938444E+01  0.88966669414E-01  0.31294834287E+01  0.00000000000E+00 0. -1.
</event>
<event>
 7    1  0.9175399E-010  0.4778727E+02  0.7816164E-02  0.1312668E+00
        -11   -1    0    0    0    0  0.00000000000E+00  0.00000000000E+00  0.45593999997E+02  0.45594000000E+02  0.51100000000E-03 0.  1.
         11   -1    0    0    0    0 -0.00000000000E+00 -0.00000000000E+00 -0.45593999997E+02  0.45594000000E+02  0.51100000000E-03 0. -1.
    9900012    2    1    2    0    0 -0.40178385295E+02 -0.13799772642E+02  0.88818335529E+01  0.47787270316E+02  0.19999996677E+02 0.  0.
        -12    1    1    2    0    0  0.40178385295E+02  0.13799772642E+02 -0.88818335529E+01  0.43400729684E+02  0.00000000000E+00 0.  1.
         11    1    3    3    0    0 -0.29674379588E+02 -0.57224413192E+01  0.93944739596E+01  0.31647610965E+02  0.51100000000E-03 0. -1.
        -11    1    3    3    0    0 -0.28956944778E+01 -0.33976358044E+00  0.35131717726E+01  0.45653983358E+01  0.51100000000E-03 0.  1.
         12    1    3    3    0    0 -0.76083112295E+01 -0.77375677425E+01 -0.40258121793E+01  0.11574261015E+02  0.00000000000E+00 0. -1.
</event>
<event>
 7    1  0.9175399E-010  0.4778727E+02  0.7816164E-02  0.1312668E+00
        -11   -1    0    0    0    0  0.00000000000E+00  0.00000000000E+00  0.45593999997E+02  0.45594000000E+02  0.51100000000E-03 0. -1.
         11   -1    0    0    0    0 -0.00000000000E+00 -0.00000000000E+00 -0.45593999997E+02  0.45594000000E+02  0.51100000000E-03 0.  1.
    9900012    2    1    2    0    0 -0.15274966082E+02 -0.33857768606E+01  0.40482526247E+02  0.47787274141E+02  0.20000014120E+02 0.  0.
        -12    1    1    2    0    0  0.15274966082E+02  0.33857768606E+01 -0.40482526247E+02  0.43400725859E+02  0.00000000000E+00 0.  1.
         11    1    3    3    0    0 -0.80433378960E+01 -0.11032647562E+01  0.30155972089E+02  0.31229715505E+02  0.51100000000E-03 0. -1.
        -11    1    3    3    0    0 -0.13240988036E+01 -0.31185119303E+01 -0.11870206685E+01  0.35898986935E+01  0.51100000000E-03 0.  1.
         12    1    3    3    0    0 -0.59075293823E+01  0.83599982581E+00  0.11513574826E+02  0.12967659943E+02  0.00000000000E+00 0. -1.
</event>
<event>
 7    1  0.9175399E-010  0.4778726E+02  0.7816164E-02  0.1312668E+00
        -11   -1    0    0    0    0  0.00000000000E+00  0.00000000000E+00  0.45593999997E+02  0.45594000000E+02  0.51100000000E-03 0. -1.
         11   -1    0    0    0    0 -0.00000000000E+00 -0.00000000000E+00 -0.45593999997E+02  0.45594000000E+02  0.51100000000E-03 0.  1.
    9900012    2    1    2    0    0  0.44074374859E+00  0.28198059269E+02 -0.32989390008E+02  0.47787255137E+02  0.19999927472E+02 0.  0.
         12    1    1    2    0    0 -0.44074374859E+00 -0.28198059269E+02  0.32989390008E+02  0.43400744863E+02  0.00000000000E+00 0. -1.
         11    1    3    3    0    0  0.49773093298E+01  0.61249492843E+01 -0.33054118060E+01  0.85565389830E+01  0.51100000000E-03 0. -1.
        -11    1    3    3    0    0 -0.26185718355E+01  0.39980288818E+01 -0.15366297327E+02  0.16092366116E+02  0.51100000000E-03 0.  1.
        -12    1    3    3    0    0 -0.19179937457E+01  0.18075081102E+02 -0.14317680875E+02  0.23138350038E+02  0.00000000000E+00 0.  1.
</event>
<event>
 7    1  0.9175399E-010  0.4778727E+02  0.7816164E-02  0.1312668E+00
        -11   -1    0    0    0    0  0.00000000000E+00  0.00000000000E+00  0.45593999997E+02  0.45594000000E+02  0.51100000000E-03 0. -1.
         11   -1    0    0    0    0 -0.00000000000E+00 -0.00000000000E+00 -0.45593999997E+02  0.45594000000E+02  0.51100000000E-03 0.  1.
    9900012    2    1    2    0    0  0.24178625340E+02 -0.12991289949E+01 -0.36018461313E+02  0.47787271725E+02  0.20000003103E+02 0.  0.
         12    1    1    2    0    0 -0.24178625340E+02  0.12991289949E+01  0.36018461313E+02  0.43400728275E+02  0.00000000000E+00 0. -1.
         11    1    3    3    0    0  0.70703332832E+01 -0.69781444087E+01 -0.15504132565E+02  0.18413642741E+02  0.51100000000E-03 0. -1.
        -11    1    3    3    0    0  0.90240965016E+01  0.20879944154E+01 -0.29727689789E+01  0.97278668788E+01  0.51100000000E-03 0.  1.
         12    1    3    3    0    0  0.80841955553E+01  0.35910209985E+01 -0.17541559768E+02  0.19645762105E+02  0.00000000000E+00 0. -1.
</event>
<event>
 7    1  0.9175399E-010  0.4778727E+02  0.7816164E-02  0.1312668E+00
        -11   -1    0    0    0    0  0.00000000000E+00  0.00000000000E+00  0.45593999997E+02  0.45594000000E+02  0.51100000000E-03 0. -1.
         11   -1    0    0    0    0 -0.00000000000E+00 -0.00000000000E+00 -0.45593999997E+02  0.45594000000E+02  0.51100000000E-03 0.  1.
    9900012    2    1    2    0    0  0.41794795991E+02 -0.11331983966E+01 -0.11641911001E+02  0.47787271870E+02  0.20000003762E+02 0.  0.
         12    1    1    2    0    0 -0.41794795991E+02  0.11331983966E+01  0.11641911001E+02  0.43400728130E+02  0.00000000000E+00 0. -1.
         11    1    3    3    0    0  0.79871984777E+01  0.48540500154E+01 -0.81851342335E+01  0.12423910969E+02  0.51100000000E-03 0. -1.
        -11    1    3    3    0    0  0.23477705998E+02 -0.28280140865E+01  0.10219719585E+01  0.23669490268E+02  0.51100000000E-03 0.  1.
         12    1    3    3    0    0  0.10329891515E+02 -0.31592343255E+01 -0.44787487258E+01  0.11693870633E+02  0.00000000000E+00 0. -1.
</event>
<event>
 7    1  0.9175399E-010  0.4778727E+02  0.7816164E-02  0.1312668E+00
        -11   -1    0    0    0    0  0.00000000000E+00  0.00000000000E+00  0.45593999997E+02  0.45594000000E+02  0.51100000000E-03 0. -1.
         11   -1    0    0    0    0 -0.00000000000E+00 -0.00000000000E+00 -0.45593999997E+02  0.45594000000E+02  0.51100000000E-03 0.  1.
    9900012    2    1    2    0    0  0.22324464616E+02  0.95992763917E+01  0.35959637216E+02  0.47787270325E+02  0.19999996721E+02 0.  0.
        -12    1    1    2    0    0 -0.22324464616E+02 -0.95992763917E+01 -0.35959637216E+02  0.43400729675E+02  0.00000000000E+00 0.  1.
         11    1    3    3    0    0  0.19478900283E+01  0.21990244003E+01  0.12001212746E+01  0.31733696933E+01  0.51100000000E-03 0. -1.
        -11    1    3    3    0    0  0.16562591697E+02 -0.14065210528E+00  0.12340062078E+02  0.20654693391E+02  0.51100000000E-03 0.  1.
        -12    1    3    3    0    0  0.38139828905E+01  0.75409040967E+01  0.22419453863E+02  0.23959207241E+02  0.00000000000E+00 0.  1.
</event>
<event>
 7    1  0.9175399E-010  0.4778726E+02  0.7816164E-02  0.1312668E+00
        -11   -1    0    0    0    0  0.00000000000E+00  0.00000000000E+00  0.45593999997E+02  0.45594000000E+02  0.51100000000E-03 0. -1.
         11   -1    0    0    0    0 -0.00000000000E+00 -0.00000000000E+00 -0.45593999997E+02  0.45594000000E+02  0.51100000000E-03 0.  1.
    9900012    2    1    2    0    0  0.21464604514E+00 -0.13321416139E+02  0.41305179037E+02  0.47787262493E+02  0.19999961010E+02 0.  0.
        -12    1    1    2    0    0 -0.21464604514E+00  0.13321416139E+02 -0.41305179037E+02  0.43400737507E+02  0.00000000000E+00 0.  1.
         11    1    3    3    0    0 -0.10364592455E+01 -0.48562583134E+01  0.20927187471E+02  0.21508246518E+02  0.51100000000E-03 0. -1.
        -11    1    3    3    0    0  0.65843143471E+01 -0.51217288314E+01  0.51552814046E+01  0.98062341532E+01  0.51100000000E-03 0.  1.
        -12    1    3    3    0    0 -0.53332090565E+01 -0.33434289945E+01  0.15222710161E+02  0.16472781821E+02  0.00000000000E+00 0.  1.
</event>
<event>
 7    1  0.9175399E-010  0.4778727E+02  0.7816164E-02  0.1312668E+00
        -11   -1    0    0    0    0  0.00000000000E+00  0.00000000000E+00  0.45593999997E+02  0.45594000000E+02  0.51100000000E-03 0. -1.
         11   -1    0    0    0    0 -0.00000000000E+00 -0.00000000000E+00 -0.45593999997E+02  0.45594000000E+02  0.51100000000E-03 0.  1.
    9900012    2    1    2    0    0 -0.25632783942E+02  0.22100542170E+02 -0.27168917145E+02  0.47787266876E+02  0.19999980995E+02 0.  0.
         12    1    1    2    0    0  0.25632783942E+02 -0.22100542170E+02  0.27168917145E+02  0.43400733124E+02  0.00000000000E+00 0. -1.
         11    1    3    3    0    0 -0.21681012882E+02  0.10415954892E+02 -0.10009778392E+02  0.26052909619E+02  0.51100000000E-03 0. -1.
        -11    1    3    3    0    0 -0.49431704011E+01  0.91638504552E+01 -0.15053446166E+02  0.18303478645E+02  0.51100000000E-03 0.  1.
         12    1    3    3    0    0  0.99139934030E+00  0.25207368227E+01 -0.21056925874E+01  0.34308786125E+01  0.00000000000E+00 0. -1.
</event>
<event>
 7    1  0.9175399E-010  0.4778727E+02  0.7816164E-02  0.1312668E+00
        -11   -1    0    0    0    0  0.00000000000E+00  0.00000000000E+00  0.45593999997E+02  0.45594000000E+02  0.51100000000E-03 0.  1.
         11   -1    0    0    0    0 -0.00000000000E+00 -0.00000000000E+00 -0.45593999997E+02  0.45594000000E+02  0.51100000000E-03 0. -1.
    9900012    2    1    2    0    0  0.29928805408E+02 -0.31426583699E+02 -0.50962958454E+00  0.47787270992E+02  0.19999999761E+02 0.  0.
        -12    1    1    2    0    0 -0.29928805408E+02  0.31426583699E+02  0.50962958454E+00  0.43400729008E+02  0.00000000000E+00 0.  1.
         11    1    3    3    0    0  0.20893875864E+02 -0.10054155144E+02 -0.44564627416E+01  0.23611440970E+02  0.51100000000E-03 0. -1.
        -11    1    3    3    0    0  0.81136800723E+01 -0.20718097002E+02  0.47973927057E+01  0.22761509720E+02  0.51100000000E-03 0.  1.
        -12    1    3    3    0    0  0.92124947169E+00 -0.65433155286E+00 -0.85055954865E+00  0.14143203018E+01  0.00000000000E+00 0.  1.
</event>
<event>
 7    1  0.9175399E-010  0.4778727E+02  0.7816164E-02  0.1312668E+00
        -11   -1    0    0    0    0  0.00000000000E+00  0.00000000000E+00  0.45593999997E+02  0.45594000000E+02  0.51100000000E-03 0. -1.
         11   -1    0    0    0    0 -0.00000000000E+00 -0.00000000000E+00 -0.45593999997E+02  0.45594000000E+02  0.51100000000E-03 0.  1.
    9900012    2    1    2    0    0 -0.16346026475E+02  0.37159576610E+02 -0.15349154918E+02  0.47787271065E+02  0.20000000095E+02 0.  0.
         12    1    1    2    0    0  0.16346026475E+02 -0.37159576610E+02  0.15349154918E+02  0.43400728935E+02  0.00000000000E+00 0. -1.
         11    1    3    3    0    0 -0.79342289703E+01  0.97763357656E+01 -0.62322807316E+00  0.12606234325E+02  0.51100000000E-03 0. -1.
        -11    1    3    3    0    0 -0.67791175385E+01  0.18539280149E+02 -0.16834867222E+02  0.25943671631E+02  0.51100000000E-03 0.  1.
        -12    1    3    3    0    0 -0.16326799660E+01  0.88439606953E+01  0.21089403775E+01  0.92373651096E+01  0.00000000000E+00 0.  1.
</event>
<event>
 7    1  0.9175399E-010  0.4778727E+02  0.7816164E-02  0.1312668E+00
        -11   -1    0    0    0    0  0.00000000000E+00  0.00000000000E+00  0.45593999997E+02  0.45594000000E+02  0.51100000000E-03 0. -1.
         11   -1    0    0    0    0 -0.00000000000E+00 -0.00000000000E+00 -0.45593999997E+02  0.45594000000E+02  0.51100000000E-03 0.  1.
    9900012    2    1    2    0    0  0.62415116496E+01  0.18028615639E+02  0.38982510210E+02  0.47787267842E+02  0.19999985400E+02 0.  0.
        -12    1    1    2    0    0 -0.62415116496E+01 -0.18028615639E+02 -0.38982510210E+02  0.43400732158E+02  0.00000000000E+00 0.  1.
         11    1    3    3    0    0 -0.48850153332E+01  0.84561344126E+01  0.11752230205E+02  0.15280199575E+02  0.51100000000E-03 0. -1.
        -11    1    3    3    0    0  0.11220463738E+02  0.38691640955E+01  0.20468449652E+02  0.23660656557E+02  0.51100000000E-03 0.  1.
        -12    1    3    3    0    0 -0.93936755113E-01  0.57033171313E+01  0.67618303533E+01  0.88464117099E+01  0.00000000000E+00 0.  1.
</event>
<event>
 7    1  0.9175399E-010  0.4778727E+02  0.7816164E-02  0.1312668E+00
        -11   -1    0    0    0    0  0.00000000000E+00  0.00000000000E+00  0.45593999997E+02  0.45594000000E+02  0.51100000000E-03 0. -1.
         11   -1    0    0    0    0 -0.00000000000E+00 -0.00000000000E+00 -0.45593999997E+02  0.45594000000E+02  0.51100000000E-03 0.  1.
    9900012    2    1    2    0    0 -0.66423967798E+01 -0.64107700663E+01  0.42407592607E+02  0.47787270530E+02  0.19999997653E+02 0.  0.
        -12    1    1    2    0    0  0.66423967798E+01  0.64107700663E+01 -0.42407592607E+02  0.43400729470E+02  0.00000000000E+00 0.  1.
         11    1    3    3    0    0 -0.49266118447E+01 -0.54999516600E+01  0.31240887177E+02  0.32101619965E+02  0.51100000000E-03 0. -1.
        -11    1    3    3    0    0 -0.14773890394E+01  0.49078566260E+01  0.43717142207E+01  0.67365881962E+01  0.51100000000E-03 0.  1.
        -12    1    3    3    0    0 -0.23839589560E+00 -0.58186750323E+01  0.67949912099E+01  0.89490623686E+01  0.00000000000E+00 0.  1.
</event>
<event>
 7    1  0.9175399E-010  0.4778727E+02  0.7816164E-02  0.1312668E+00
        -11   -1    0    0    0    0  0.00000000000E+00  0.00000000000E+00  0.45593999997E+02  0.45594000000E+02  0.51100000000E-03 0. -1.
         11   -1    0    0    0    0 -0.00000000000E+00 -0.00000000000E+00 -0.45593999997E+02  0.45594000000E+02  0.51100000000E-03 0.  1.
    9900012    2    1    2    0    0  0.36067473679E+02 -0.23402525917E+02 -0.59230246206E+01  0.47787273076E+02  0.20000009263E+02 0.  0.
         12    1    1    2    0    0 -0.36067473679E+02  0.23402525917E+02  0.59230246206E+01  0.43400726924E+02  0.00000000000E+00 0. -1.
         11    1    3    3    0    0  0.91369787670E+01 -0.77263037779E+01  0.54062856815E+01  0.13130425591E+02  0.51100000000E-03 0. -1.
        -11    1    3    3    0    0  0.27478802264E+02 -0.16275756823E+02 -0.11121598890E+02  0.33818261282E+02  0.51100000000E-03 0.  1.
        -12    1    3    3    0    0 -0.54830735191E+00  0.59953468403E+00 -0.20771141165E+00  0.83858620310E+00  0.00000000000E+00 0.  1.
</event>
<event>
 7    1  0.9175399E-010  0.4778727E+02  0.7816164E-02  0.1312668E+00
        -11   -1    0    0    0    0  0.00000000000E+00  0.00000000000E+00  0.45593999997E+02  0.45594000000E+02  0.51100000000E-03 0.  1.
         11   -1    0    0    0    0 -0.00000000000E+00 -0.00000000000E+00 -0.45593999997E+02  0.45594000000E+02  0.51100000000E-03 0. -1.
    9900012    2    1    2    0    0  0.36439518278E+02  0.23566468451E+02  0.63753666019E+00  0.47787269815E+02  0.19999994394E+02 0.  0.
        -12    1    1    2    0    0 -0.36439518278E+02 -0.23566468451E+02 -0.63753666019E+00  0.43400730185E+02  0.00000000000E+00 0.  1.
         11    1    3    3    0    0  0.20846646295E+02  0.14287689176E+02  0.48558396467E+01  0.25735188025E+02  0.51100000000E-03 0. -1.
        -11    1    3    3    0    0  0.96675242823E+01  0.85926102629E+01 -0.77905969375E+01  0.15099250901E+02  0.51100000000E-03 0.  1.
        -12    1    3    3    0    0  0.59253477012E+01  0.68616901186E+00  0.35722939510E+01  0.69528308886E+01  0.00000000000E+00 0.  1.
</event>
<event>
 7    1  0.9175399E-010  0.4778727E+02  0.7816164E-02  0.1312668E+00
        -11   -1    0    0    0    0  0.00000000000E+00  0.00000000000E+00  0.45593999997E+02  0.45594000000E+02  0.51100000000E-03 0. -1.
         11   -1    0    0    0    0 -0.00000000000E+00 -0.00000000000E+00 -0.45593999997E+02  0.45594000000E+02  0.51100000000E-03 0.  1.
    9900012    2    1    2    0    0 -0.14385090573E+02  0.14937998024E+02 -0.38125428907E+02  0.47787274832E+02  0.20000017269E+02 0.  0.
         12    1    1    2    0    0  0.14385090573E+02 -0.14937998024E+02  0.38125428907E+02  0.43400725168E+02  0.00000000000E+00 0. -1.
         11    1    3    3    0    0 -0.13597376165E+02  0.15041419383E+02 -0.29937190235E+02  0.36157548245E+02  0.51100000000E-03 0.  1.
        -11    1    3    3    0    0  0.10520252396E+01  0.34742580598E+01 -0.60966160490E+01  0.70954882623E+01  0.51100000000E-03 0. -1.
         12    1    3    3    0    0 -0.18397396475E+01 -0.35776794186E+01 -0.20916226228E+01  0.45342383251E+01  0.00000000000E+00 0. -1.
</event>
<event>
 7    1  0.9175399E-010  0.4778729E+02  0.7816164E-02  0.1312668E+00
        -11   -1    0    0    0    0  0.00000000000E+00  0.00000000000E+00  0.45593999997E+02  0.45594000000E+02  0.51100000000E-03 0. -1.
         11   -1    0    0    0    0 -0.00000000000E+00 -0.00000000000E+00 -0.45593999997E+02  0.45594000000E+02  0.51100000000E-03 0.  1.
    9900012    2    1    2    0    0 -0.19045220487E+02 -0.26989817771E+02  0.28150500860E+02  0.47787292801E+02  0.20000099197E+02 0.  0.
        -12    1    1    2    0    0  0.19045220487E+02  0.26989817771E+02 -0.28150500860E+02  0.43400707199E+02  0.00000000000E+00 0.  1.
         11    1    3    3    0    0 -0.12154687664E+02 -0.22462772207E+02  0.13129896060E+02  0.28717707747E+02  0.51100000000E-03 0. -1.
        -11    1    3    3    0    0 -0.45496894397E+01 -0.24953288493E+01  0.18029411890E+01  0.54933539169E+01  0.51100000000E-03 0.  1.
         12    1    3    3    0    0 -0.23408433833E+01 -0.20317167145E+01  0.13217663611E+02  0.13576231137E+02  0.00000000000E+00 0. -1.
</event>
<event>
 7    1  0.9175399E-010  0.4778727E+02  0.7816164E-02  0.1312668E+00
        -11   -1    0    0    0    0  0.00000000000E+00  0.00000000000E+00  0.45593999997E+02  0.45594000000E+02  0.51100000000E-03 0.  1.
         11   -1    0    0    0    0 -0.00000000000E+00 -0.00000000000E+00 -0.45593999997E+02  0.45594000000E+02  0.51100000000E-03 0. -1.
    9900012    2    1    2    0    0  0.43126973824E+02  0.32767790449E+01 -0.35986964476E+01  0.47787265349E+02  0.19999974032E+02 0.  0.
         12    1    1    2    0    0 -0.43126973824E+02 -0.32767790449E+01  0.35986964476E+01  0.43400734651E+02  0.00000000000E+00 0. -1.
         11    1    3    3    0    0  0.53439108195E+01 -0.58926899497E+01  0.28747502544E-01  0.79549987033E+01  0.51100000000E-03 0. -1.
        -11    1    3    3    0    0  0.21508759165E+02  0.68076223214E+01 -0.56676432001E+01  0.23261397684E+02  0.51100000000E-03 0.  1.
         12    1    3    3    0    0  0.16274303840E+02  0.23618466732E+01  0.20401992500E+01  0.16570868962E+02  0.00000000000E+00 0. -1.
</event>
<event>
 7    1  0.9175399E-010  0.4778724E+02  0.7816164E-02  0.1312668E+00
        -11   -1    0    0    0    0  0.00000000000E+00  0.00000000000E+00  0.45593999997E+02  0.45594000000E+02  0.51100000000E-03 0.  1.
         11   -1    0    0    0    0 -0.00000000000E+00 -0.00000000000E+00 -0.45593999997E+02  0.45594000000E+02  0.51100000000E-03 0. -1.
    9900012    2    1    2    0    0  0.42143180293E+02  0.64738289840E+01  0.81035588684E+01  0.47787242250E+02  0.19999868716E+02 0.  0.
        -12    1    1    2    0    0 -0.42143180293E+02 -0.64738289840E+01 -0.81035588684E+01  0.43400757750E+02  0.00000000000E+00 0.  1.
         11    1    3    3    0    0  0.36750253718E+02  0.11716976504E+02  0.81279509101E+01  0.39419947653E+02  0.51100000000E-03 0. -1.
        -11    1    3    3    0    0  0.11783281152E+01 -0.31340285351E+01  0.10960579918E+01  0.35230576760E+01  0.51100000000E-03 0.  1.
         12    1    3    3    0    0  0.42145984599E+01 -0.21091189853E+01 -0.11204500335E+01  0.48442369214E+01  0.00000000000E+00 0. -1.
</event>
<event>
 7    1  0.9175399E-010  0.4778727E+02  0.7816164E-02  0.1312668E+00
        -11   -1    0    0    0    0  0.00000000000E+00  0.00000000000E+00  0.45593999997E+02  0.45594000000E+02  0.51100000000E-03 0. -1.
         11   -1    0    0    0    0 -0.00000000000E+00 -0.00000000000E+00 -0.45593999997E+02  0.45594000000E+02  0.51100000000E-03 0.  1.
    9900012    2    1    2    0    0  0.30739543550E+02 -0.98301406835E+01  0.29018486859E+02  0.47787265177E+02  0.19999973249E+02 0.  0.
        -12    1    1    2    0    0 -0.30739543550E+02  0.98301406835E+01 -0.29018486859E+02  0.43400734823E+02  0.00000000000E+00 0.  1.
         11    1    3    3    0    0  0.27740092123E+02 -0.51506306046E+01  0.21088917055E+02  0.35224765853E+02  0.51100000000E-03 0. -1.
        -11    1    3    3    0    0 -0.19810546258E+01 -0.21619634985E+01  0.82665984261E-01  0.29335128303E+01  0.51100000000E-03 0.  1.
        -12    1    3    3    0    0  0.49805060532E+01 -0.25175465803E+01  0.78469038201E+01  0.96289864935E+01  0.00000000000E+00 0.  1.
</event>
<event>
 7    1  0.9175399E-010  0.4778727E+02  0.7816164E-02  0.1312668E+00
        -11   -1    0    0    0    0  0.00000000000E+00  0.00000000000E+00  0.45593999997E+02  0.45594000000E+02  0.51100000000E-03 0. -1.
         11   -1    0    0    0    0 -0.00000000000E+00 -0.00000000000E+00 -0.45593999997E+02  0.45594000000E+02  0.51100000000E-03 0.  1.
    9900012    2    1    2    0    0  0.11465154292E+02  0.76594013642E+01  0.41152247205E+02  0.47787266801E+02  0.19999980651E+02 0.  0.
        -12    1    1    2    0    0 -0.11465154292E+02 -0.76594013642E+01 -0.41152247205E+02  0.43400733199E+02  0.00000000000E+00 0.  1.
         11    1    3    3    0    0  0.82371971499E+01  0.59404178178E+01  0.33206082124E+02  0.34724398785E+02  0.51100000000E-03 0. -1.
        -11    1    3    3    0    0  0.57564362142E+01 -0.15803845034E+01  0.32706457837E+01  0.68067097169E+01  0.51100000000E-03 0.  1.
         12    1    3    3    0    0 -0.25284790725E+01  0.32993680498E+01  0.46755192982E+01  0.62561582985E+01  0.00000000000E+00 0. -1.
</event>
<event>
 7    1  0.9175399E-010  0.4778727E+02  0.7816164E-02  0.1312668E+00
        -11   -1    0    0    0    0  0.00000000000E+00  0.00000000000E+00  0.45593999997E+02  0.45594000000E+02  0.51100000000E-03 0. -1.
         11   -1    0    0    0    0 -0.00000000000E+00 -0.00000000000E+00 -0.45593999997E+02  0.45594000000E+02  0.51100000000E-03 0.  1.
    9900012    2    1    2    0    0 -0.67799423685E+00 -0.28272333386E+02 -0.32921707600E+02  0.47787270253E+02  0.19999996391E+02 0.  0.
         12    1    1    2    0    0  0.67799423685E+00  0.28272333386E+02  0.32921707600E+02  0.43400729747E+02  0.00000000000E+00 0. -1.
         11    1    3    3    0    0 -0.92793237276E+00 -0.20963533437E+02 -0.33811998393E+02  0.39794246170E+02  0.51100000000E-03 0.  1.
        -11    1    3    3    0    0  0.32203520843E+00 -0.19642531970E+01 -0.11182272611E+01  0.22830746300E+01  0.51100000000E-03 0. -1.
         12    1    3    3    0    0 -0.72097072528E-01 -0.53445467524E+01  0.20085180545E+01  0.57099494527E+01  0.00000000000E+00 0. -1.
</event>
<event>
 7    1  0.9175399E-010  0.4778728E+02  0.7816164E-02  0.1312668E+00
        -11   -1    0    0    0    0  0.00000000000E+00  0.00000000000E+00  0.45593999997E+02  0.45594000000E+02  0.51100000000E-03 0. -1.
         11   -1    0    0    0    0 -0.00000000000E+00 -0.00000000000E+00 -0.45593999997E+02  0.45594000000E+02  0.51100000000E-03 0.  1.
    9900012    2    1    2    0    0  0.42303713148E+02  0.70718858406E+01 -0.66337368896E+01  0.47787283640E+02  0.20000057429E+02 0.  0.
         12    1    1    2    0    0 -0.42303713148E+02 -0.70718858406E+01  0.66337368896E+01  0.43400716360E+02  0.00000000000E+00 0. -1.
         11    1    3    3    0    0  0.10147493068E+02  0.27458093819E+01  0.26135516706E+01  0.10832439121E+02  0.51100000000E-03 0. -1.
        -11    1    3    3    0    0  0.25776304492E+02  0.58798182675E+01 -0.12925037519E+02  0.29428671925E+02  0.51100000000E-03 0.  1.
        -12    1    3    3    0    0  0.63799155879E+01 -0.15537418088E+01  0.36777489585E+01  0.75261725943E+01  0.00000000000E+00 0.  1.
</event>
<event>
 7    1  0.9175399E-010  0.4778727E+02  0.7816164E-02  0.1312668E+00
        -11   -1    0    0    0    0  0.00000000000E+00  0.00000000000E+00  0.45593999997E+02  0.45594000000E+02  0.51100000000E-03 0. -1.
         11   -1    0    0    0    0 -0.00000000000E+00 -0.00000000000E+00 -0.45593999997E+02  0.45594000000E+02  0.51100000000E-03 0.  1.
    9900012    2    1    2    0    0 -0.43955568653E+01 -0.68433646382E+01  0.42631801932E+02  0.47787273097E+02  0.20000009358E+02 0.  0.
        -12    1    1    2    0    0  0.43955568653E+01  0.68433646382E+01 -0.42631801932E+02  0.43400726903E+02  0.00000000000E+00 0.  1.
         11    1    3    3    0    0 -0.55018746956E+00 -0.20249703286E+01  0.45821456861E+01  0.50397688869E+01  0.51100000000E-03 0. -1.
        -11    1    3    3    0    0 -0.24010319679E+01 -0.61579038332E+01  0.39657657737E+02  0.40204658331E+02  0.51100000000E-03 0.  1.
        -12    1    3    3    0    0 -0.14443374279E+01  0.13395095236E+01 -0.16080014903E+01  0.25428458786E+01  0.00000000000E+00 0.  1.
</event>
<event>
 7    1  0.9175399E-010  0.4778727E+02  0.7816164E-02  0.1312668E+00
        -11   -1    0    0    0    0  0.00000000000E+00  0.00000000000E+00  0.45593999997E+02  0.45594000000E+02  0.51100000000E-03 0.  1.
         11   -1    0    0    0    0 -0.00000000000E+00 -0.00000000000E+00 -0.45593999997E+02  0.45594000000E+02  0.51100000000E-03 0. -1.
    9900012    2    1    2    0    0 -0.80954133611E+01 -0.42555228623E+02 -0.26721633552E+01  0.47787266624E+02  0.19999979843E+02 0.  0.
        -12    1    1    2    0    0  0.80954133611E+01  0.42555228623E+02  0.26721633552E+01  0.43400733376E+02  0.00000000000E+00 0.  1.
         11    1    3    3    0    0 -0.95577708058E+01 -0.21046858153E+02 -0.52951019773E+01  0.23714116600E+02  0.51100000000E-03 0. -1.
        -11    1    3    3    0    0  0.28942452751E+01 -0.22028818768E+02  0.16803140574E+01  0.22281583597E+02  0.51100000000E-03 0.  1.
        -12    1    3    3    0    0 -0.14318878304E+01  0.52044829832E+00  0.94262456463E+00  0.17915664263E+01  0.00000000000E+00 0.  1.
</event>
<event>
 7    1  0.9175399E-010  0.4778727E+02  0.7816164E-02  0.1312668E+00
        -11   -1    0    0    0    0  0.00000000000E+00  0.00000000000E+00  0.45593999997E+02  0.45594000000E+02  0.51100000000E-03 0. -1.
         11   -1    0    0    0    0 -0.00000000000E+00 -0.00000000000E+00 -0.45593999997E+02  0.45594000000E+02  0.51100000000E-03 0.  1.
    9900012    2    1    2    0    0  0.55856783006E+01 -0.27644412586E+02  0.32988022508E+02  0.47787274449E+02  0.20000015525E+02 0.  0.
        -12    1    1    2    0    0 -0.55856783006E+01  0.27644412586E+02 -0.32988022508E+02  0.43400725551E+02  0.00000000000E+00 0.  1.
         11    1    3    3    0    0  0.26891916981E+01 -0.60849806253E+01  0.12941547996E+02  0.14551371275E+02  0.51100000000E-03 0. -1.
        -11    1    3    3    0    0 -0.41883169181E+01 -0.51154263319E+00  0.42018977046E+01  0.59547979860E+01  0.51100000000E-03 0.  1.
        -12    1    3    3    0    0  0.70848035206E+01 -0.21047889328E+02  0.15844576807E+02  0.27281105188E+02  0.00000000000E+00 0.  1.
</event>
<event>
 7    1  0.9979230E-010  0.4778728E+02  0.7816164E-02  0.1312668E+00
        -11   -1    0    0    0    0  0.00000000000E+00  0.00000000000E+00  0.45593999997E+02  0.45594000000E+02  0.51100000000E-03 0. -1.
         11   -1    0    0    0    0 -0.00000000000E+00 -0.00000000000E+00 -0.45593999997E+02  0.45594000000E+02  0.51100000000E-03 0.  1.
    9900012    2    1    2    0    0 -0.14356032444E+02 -0.22006121501E+02 -0.34543560130E+02  0.47787278837E+02  0.20000035529E+02 0.  0.
         12    1    1    2    0    0  0.14356032444E+02  0.22006121501E+02  0.34543560130E+02  0.43400721163E+02  0.00000000000E+00 0. -1.
         11    1    3    3    0    0 -0.15286111685E+02 -0.10932630610E+02 -0.19312531882E+02  0.26947384112E+02  0.51100000000E-03 0. -1.
        -11    1    3    3    0    0 -0.35254117653E+01 -0.77009523923E+01 -0.75845094405E+01  0.11369167937E+02  0.51100000000E-03 0.  1.
         12    1    3    3    0    0  0.44554910061E+01 -0.33725384981E+01 -0.76465188073E+01  0.94707267882E+01  0.00000000000E+00 0. -1.
</event>
<event>
 7    1  0.9175399E-010  0.4778725E+02  0.7816164E-02  0.1312668E+00
        -11   -1    0    0    0    0  0.00000000000E+00  0.00000000000E+00  0.45593999997E+02  0.45594000000E+02  0.51100000000E-03 0. -1.
         11   -1    0    0    0    0 -0.00000000000E+00 -0.00000000000E+00 -0.45593999997E+02  0.45594000000E+02  0.51100000000E-03 0.  1.
    9900012    2    1    2    0    0 -0.14480303159E+02  0.25200117221E+02  0.32231971050E+02  0.47787250637E+02  0.19999906953E+02 0.  0.
        -12    1    1    2    0    0  0.14480303159E+02 -0.25200117221E+02 -0.32231971050E+02  0.43400749363E+02  0.00000000000E+00 0.  1.
         11    1    3    3    0    0 -0.24377498731E+01  0.27918990473E+00  0.63345854009E+01  0.67931983564E+01  0.51100000000E-03 0. -1.
        -11    1    3    3    0    0  0.94469365635E+00  0.16891200574E+01 -0.17559092876E+01  0.26131954309E+01  0.51100000000E-03 0.  1.
        -12    1    3    3    0    0 -0.12987246942E+02  0.23231807259E+02  0.27653294937E+02  0.38380856849E+02  0.00000000000E+00 0.  1.
</event>
<event>
 7    1  0.9175399E-010  0.4778727E+02  0.7816164E-02  0.1312668E+00
        -11   -1    0    0    0    0  0.00000000000E+00  0.00000000000E+00  0.45593999997E+02  0.45594000000E+02  0.51100000000E-03 0. -1.
         11   -1    0    0    0    0 -0.00000000000E+00 -0.00000000000E+00 -0.45593999997E+02  0.45594000000E+02  0.51100000000E-03 0.  1.
    9900012    2    1    2    0    0 -0.11782496478E+02  0.14772638020E+02 -0.39071290484E+02  0.47787265013E+02  0.19999972500E+02 0.  0.
         12    1    1    2    0    0  0.11782496478E+02 -0.14772638020E+02  0.39071290484E+02  0.43400734987E+02  0.00000000000E+00 0. -1.
         11    1    3    3    0    0 -0.13940646914E+02  0.69751754931E+01 -0.28213885198E+02  0.32233802564E+02  0.51100000000E-03 0. -1.
        -11    1    3    3    0    0  0.22827923729E+01 -0.75855754940E+00 -0.13346645212E+01  0.27509780477E+01  0.51100000000E-03 0.  1.
         12    1    3    3    0    0 -0.12464193673E+00  0.85560200758E+01 -0.95227407656E+01  0.12802484401E+02  0.00000000000E+00 0. -1.
</event>
<event>
 7    1  0.9175399E-010  0.4778727E+02  0.7816164E-02  0.1312668E+00
        -11   -1    0    0    0    0  0.00000000000E+00  0.00000000000E+00  0.45593999997E+02  0.45594000000E+02  0.51100000000E-03 0. -1.
         11   -1    0    0    0    0 -0.00000000000E+00 -0.00000000000E+00 -0.45593999997E+02  0.45594000000E+02  0.51100000000E-03 0.  1.
    9900012    2    1    2    0    0 -0.58529884143E+00  0.13963333815E+02 -0.41088998661E+02  0.47787273313E+02  0.20000010345E+02 0.  0.
         12    1    1    2    0    0  0.58529884143E+00 -0.13963333815E+02  0.41088998661E+02  0.43400726687E+02  0.00000000000E+00 0. -1.
         11    1    3    3    0    0 -0.36834588250E+00  0.73439113166E+00 -0.11940937594E+02  0.11969168723E+02  0.51100000000E-03 0. -1.
        -11    1    3    3    0    0  0.27466677800E+01  0.14133034110E+02 -0.29372714890E+02  0.32711515057E+02  0.51100000000E-03 0.  1.
        -12    1    3    3    0    0 -0.29636207389E+01 -0.90409142599E+00  0.22465382358E+00  0.31065895338E+01  0.00000000000E+00 0.  1.
</event>
<event>
 7    1  0.9175399E-010  0.4778725E+02  0.7816164E-02  0.1312668E+00
        -11   -1    0    0    0    0  0.00000000000E+00  0.00000000000E+00  0.45593999997E+02  0.45594000000E+02  0.51100000000E-03 0. -1.
         11   -1    0    0    0    0 -0.00000000000E+00 -0.00000000000E+00 -0.45593999997E+02  0.45594000000E+02  0.51100000000E-03 0.  1.
    9900012    2    1    2    0    0  0.29725347778E+02 -0.25370246902E+02  0.18878021412E+02  0.47787246311E+02  0.19999887229E+02 0.  0.
        -12    1    1    2    0    0 -0.29725347778E+02  0.25370246902E+02 -0.18878021412E+02  0.43400753689E+02  0.00000000000E+00 0.  1.
         11    1    3    3    0    0  0.95405214365E+01  0.76887378435E+00  0.59263017717E+01  0.11257609388E+02  0.51100000000E-03 0. -1.
        -11    1    3    3    0    0  0.17903545505E+02 -0.25596232281E+02  0.13641786467E+02  0.34085222412E+02  0.51100000000E-03 0.  1.
        -12    1    3    3    0    0  0.22812808361E+01 -0.54288840546E+00 -0.69006682677E+00  0.24444145105E+01  0.00000000000E+00 0.  1.
</event>
<event>
 7    1  0.9175399E-010  0.4778727E+02  0.7816164E-02  0.1312668E+00
        -11   -1    0    0    0    0  0.00000000000E+00  0.00000000000E+00  0.45593999997E+02  0.45594000000E+02  0.51100000000E-03 0. -1.
         11   -1    0    0    0    0 -0.00000000000E+00 -0.00000000000E+00 -0.45593999997E+02  0.45594000000E+02  0.51100000000E-03 0.  1.
    9900012    2    1    2    0    0 -0.38503643773E+02 -0.16777680279E+02  0.10936289676E+02  0.47787267618E+02  0.19999984379E+02 0.  0.
        -12    1    1    2    0    0  0.38503643773E+02  0.16777680279E+02 -0.10936289676E+02  0.43400732382E+02  0.00000000000E+00 0.  1.
         11    1    3    3    0    0 -0.15943743884E+02 -0.48458854515E+01 -0.36800298853E+01  0.17065409314E+02  0.51100000000E-03 0. -1.
        -11    1    3    3    0    0 -0.57661521952E+01 -0.18614326819E+00  0.40591909992E+00  0.57834186284E+01  0.51100000000E-03 0.  1.
         12    1    3    3    0    0 -0.16793747695E+02 -0.11745651559E+02  0.14210400462E+02  0.24938439676E+02  0.00000000000E+00 0. -1.
</event>
<event>
 7    1  0.9175399E-010  0.4778727E+02  0.7816164E-02  0.1312668E+00
        -11   -1    0    0    0    0  0.00000000000E+00  0.00000000000E+00  0.45593999997E+02  0.45594000000E+02  0.51100000000E-03 0. -1.
         11   -1    0    0    0    0 -0.00000000000E+00 -0.00000000000E+00 -0.45593999997E+02  0.45594000000E+02  0.51100000000E-03 0.  1.
    9900012    2    1    2    0    0  0.17808772944E+02 -0.25804949050E+02 -0.30009590879E+02  0.47787270352E+02  0.19999996843E+02 0.  0.
         12    1    1    2    0    0 -0.17808772944E+02  0.25804949050E+02  0.30009590879E+02  0.43400729648E+02  0.00000000000E+00 0. -1.
         11    1    3    3    0    0  0.14321214585E+02 -0.60008595884E+01 -0.11557836820E+02  0.19356939200E+02  0.51100000000E-03 0. -1.
        -11    1    3    3    0    0 -0.14818141564E+00 -0.17092273119E+02 -0.14507119795E+02  0.22419283734E+02  0.51100000000E-03 0.  1.
        -12    1    3    3    0    0  0.36357397750E+01 -0.27118163426E+01 -0.39446342638E+01  0.60110474181E+01  0.00000000000E+00 0.  1.
</event>
<event>
 7    1  0.9175399E-010  0.4778731E+02  0.7816164E-02  0.1312668E+00
        -11   -1    0    0    0    0  0.00000000000E+00  0.00000000000E+00  0.45593999997E+02  0.45594000000E+02  0.51100000000E-03 0.  1.
         11   -1    0    0    0    0 -0.00000000000E+00 -0.00000000000E+00 -0.45593999997E+02  0.45594000000E+02  0.51100000000E-03 0. -1.
    9900012    2    1    2    0    0 -0.28474263858E+02 -0.72170368857E+01  0.31949181702E+02  0.47787314117E+02  0.20000196383E+02 0.  0.
        -12    1    1    2    0    0  0.28474263858E+02  0.72170368857E+01 -0.31949181702E+02  0.43400685883E+02  0.00000000000E+00 0.  1.
         11    1    3    3    0    0 -0.84350897380E+01 -0.55977599349E+00  0.73098482386E+01  0.11175776017E+02  0.51100000000E-03 0. -1.
        -11    1    3    3    0    0 -0.12366912751E+02 -0.73950868902E+01  0.45757278014E+01  0.15118370490E+02  0.51100000000E-03 0.  1.
        -12    1    3    3    0    0 -0.76722613692E+01  0.73782599798E+00  0.20063605662E+02  0.21493167609E+02  0.00000000000E+00 0.  1.
</event>
<event>
 7    1  0.9175399E-010  0.4778727E+02  0.7816164E-02  0.1312668E+00
        -11   -1    0    0    0    0  0.00000000000E+00  0.00000000000E+00  0.45593999997E+02  0.45594000000E+02  0.51100000000E-03 0. -1.
         11   -1    0    0    0    0 -0.00000000000E+00 -0.00000000000E+00 -0.45593999997E+02  0.45594000000E+02  0.51100000000E-03 0.  1.
    9900012    2    1    2    0    0  0.15472315960E+02 -0.37434345136E+02  0.15585259810E+02  0.47787273275E+02  0.20000010171E+02 0.  0.
        -12    1    1    2    0    0 -0.15472315960E+02  0.37434345136E+02 -0.15585259810E+02  0.43400726725E+02  0.00000000000E+00 0.  1.
         11    1    3    3    0    0  0.62868962968E+01 -0.80460161940E+01  0.12729328115E+02  0.16318677525E+02  0.51100000000E-03 0. -1.
        -11    1    3    3    0    0  0.58635333952E+01 -0.25690502455E+02  0.27781271981E+01  0.26497187233E+02  0.51100000000E-03 0.  1.
        -12    1    3    3    0    0  0.33218862681E+01 -0.36978264862E+01  0.77804496427E-01  0.49714085167E+01  0.00000000000E+00 0.  1.
</event>
<event>
 7    1  0.9175399E-010  0.4778727E+02  0.7816164E-02  0.1312668E+00
        -11   -1    0    0    0    0  0.00000000000E+00  0.00000000000E+00  0.45593999997E+02  0.45594000000E+02  0.51100000000E-03 0.  1.
         11   -1    0    0    0    0 -0.00000000000E+00 -0.00000000000E+00 -0.45593999997E+02  0.45594000000E+02  0.51100000000E-03 0. -1.
    9900012    2    1    2    0    0 -0.13238332696E+02  0.41150005723E+02  0.38790501343E+01  0.47787268975E+02  0.19999990563E+02 0.  0.
        -12    1    1    2    0    0  0.13238332696E+02 -0.41150005723E+02 -0.38790501343E+01  0.43400731025E+02  0.00000000000E+00 0.  1.
         11    1    3    3    0    0 -0.10347021648E+02  0.29669124602E+02 -0.52075870025E+01  0.31850224086E+02  0.51100000000E-03 0. -1.
        -11    1    3    3    0    0 -0.30859181556E+01  0.35759102113E+01  0.55128433024E+01  0.72595775524E+01  0.51100000000E-03 0.  1.
         12    1    3    3    0    0  0.19460710775E+00  0.79049709094E+01  0.35737938345E+01  0.86774673366E+01  0.00000000000E+00 0. -1.
</event>
<event>
 7    1  0.9175399E-010  0.4778727E+02  0.7816164E-02  0.1312668E+00
        -11   -1    0    0    0    0  0.00000000000E+00  0.00000000000E+00  0.45593999997E+02  0.45594000000E+02  0.51100000000E-03 0. -1.
         11   -1    0    0    0    0 -0.00000000000E+00 -0.00000000000E+00 -0.45593999997E+02  0.45594000000E+02  0.51100000000E-03 0.  1.
    9900012    2    1    2    0    0 -0.21502074868E+02 -0.35658855803E+01  0.37530903662E+02  0.47787268517E+02  0.19999988478E+02 0.  0.
        -12    1    1    2    0    0  0.21502074868E+02  0.35658855803E+01 -0.37530903662E+02  0.43400731483E+02  0.00000000000E+00 0.  1.
         11    1    3    3    0    0 -0.62331230987E+01  0.17693845607E+01  0.66050187080E+01  0.92525033197E+01  0.51100000000E-03 0. -1.
        -11    1    3    3    0    0 -0.17113151262E+02 -0.75758989204E+01  0.30223883815E+02  0.35549083585E+02  0.51100000000E-03 0.  1.
        -12    1    3    3    0    0  0.18441994927E+01  0.22406287794E+01  0.70200113812E+00  0.29856816130E+01  0.00000000000E+00 0.  1.
</event>
<event>
 7    1  0.9175399E-010  0.4778729E+02  0.7816164E-02  0.1312668E+00
        -11   -1    0    0    0    0  0.00000000000E+00  0.00000000000E+00  0.45593999997E+02  0.45594000000E+02  0.51100000000E-03 0. -1.
         11   -1    0    0    0    0 -0.00000000000E+00 -0.00000000000E+00 -0.45593999997E+02  0.45594000000E+02  0.51100000000E-03 0.  1.
    9900012    2    1    2    0    0 -0.77707356792E+01 -0.21578445338E+02 -0.36845728993E+02  0.47787292848E+02  0.20000099412E+02 0.  0.
         12    1    1    2    0    0  0.77707356792E+01  0.21578445338E+02  0.36845728993E+02  0.43400707152E+02  0.00000000000E+00 0. -1.
         11    1    3    3    0    0 -0.76932824685E+01 -0.11858294947E+02 -0.12993022766E+02  0.19199593616E+02  0.51100000000E-03 0. -1.
        -11    1    3    3    0    0  0.53681809835E+01 -0.18704376511E+01 -0.55666734204E+01  0.79563658355E+01  0.51100000000E-03 0.  1.
        -12    1    3    3    0    0 -0.54456341941E+01 -0.78497127406E+01 -0.18286032807E+02  0.20631333396E+02  0.00000000000E+00 0.  1.
</event>
<event>
 7    1  0.9175399E-010  0.4778727E+02  0.7816164E-02  0.1312668E+00
        -11   -1    0    0    0    0  0.00000000000E+00  0.00000000000E+00  0.45593999997E+02  0.45594000000E+02  0.51100000000E-03 0. -1.
         11   -1    0    0    0    0 -0.00000000000E+00 -0.00000000000E+00 -0.45593999997E+02  0.45594000000E+02  0.51100000000E-03 0.  1.
    9900012    2    1    2    0    0  0.12909853381E+02  0.36283869557E+01  0.41277036039E+02  0.47787271776E+02  0.20000003335E+02 0.  0.
        -12    1    1    2    0    0 -0.12909853381E+02 -0.36283869557E+01 -0.41277036039E+02  0.43400728224E+02  0.00000000000E+00 0.  1.
         11    1    3    3    0    0  0.14133906612E+02 -0.29153580005E+00  0.19698583676E+02  0.24246371034E+02  0.51100000000E-03 0. -1.
        -11    1    3    3    0    0 -0.33051297400E+01  0.33575303277E+01  0.20672447980E+02  0.21202523394E+02  0.51100000000E-03 0.  1.
         12    1    3    3    0    0  0.20810765090E+01  0.56239242805E+00  0.90600438261E+00  0.23383773478E+01  0.00000000000E+00 0. -1.
</event>
<event>
 7    1  0.9175399E-010  0.4778727E+02  0.7816164E-02  0.1312668E+00
        -11   -1    0    0    0    0  0.00000000000E+00  0.00000000000E+00  0.45593999997E+02  0.45594000000E+02  0.51100000000E-03 0. -1.
         11   -1    0    0    0    0 -0.00000000000E+00 -0.00000000000E+00 -0.45593999997E+02  0.45594000000E+02  0.51100000000E-03 0.  1.
    9900012    2    1    2    0    0  0.14433540319E+02 -0.15353541385E+02 -0.37941598928E+02  0.47787271338E+02  0.20000001338E+02 0.  0.
         12    1    1    2    0    0 -0.14433540319E+02  0.15353541385E+02  0.37941598928E+02  0.43400728662E+02  0.00000000000E+00 0. -1.
         11    1    3    3    0    0  0.11912081382E+02 -0.12478942045E+02 -0.14765675706E+02  0.22707858920E+02  0.51100000000E-03 0. -1.
        -11    1    3    3    0    0  0.48564806204E+01  0.10587363966E+01 -0.13198102730E+02  0.14103057920E+02  0.51100000000E-03 0.  1.
         12    1    3    3    0    0 -0.23350216837E+01 -0.39333357370E+01 -0.99778204922E+01  0.10976354498E+02  0.00000000000E+00 0. -1.
</event>
<event>
 7    1  0.9175399E-010  0.4778726E+02  0.7816164E-02  0.1312668E+00
        -11   -1    0    0    0    0  0.00000000000E+00  0.00000000000E+00  0.45593999997E+02  0.45594000000E+02  0.51100000000E-03 0. -1.
         11   -1    0    0    0    0 -0.00000000000E+00 -0.00000000000E+00 -0.45593999997E+02  0.45594000000E+02  0.51100000000E-03 0.  1.
    9900012    2    1    2    0    0 -0.36112247499E+02  0.16271659977E+02  0.17741552452E+02  0.47787262434E+02  0.19999960741E+02 0.  0.
        -12    1    1    2    0    0  0.36112247499E+02 -0.16271659977E+02 -0.17741552452E+02  0.43400737566E+02  0.00000000000E+00 0.  1.
         11    1    3    3    0    0 -0.13563364603E+02  0.82265172737E+01  0.15540497449E+02  0.22206924754E+02  0.51100000000E-03 0. -1.
        -11    1    3    3    0    0 -0.20569101239E+02  0.98345456140E+01  0.22606253527E+01  0.22911059348E+02  0.51100000000E-03 0.  1.
         12    1    3    3    0    0 -0.19797816573E+01 -0.17894029103E+01 -0.59570349647E-01  0.26692783318E+01  0.00000000000E+00 0. -1.
</event>
<event>
 7    1  0.9175399E-010  0.4778727E+02  0.7816164E-02  0.1312668E+00
        -11   -1    0    0    0    0  0.00000000000E+00  0.00000000000E+00  0.45593999997E+02  0.45594000000E+02  0.51100000000E-03 0.  1.
         11   -1    0    0    0    0 -0.00000000000E+00 -0.00000000000E+00 -0.45593999997E+02  0.45594000000E+02  0.51100000000E-03 0. -1.
    9900012    2    1    2    0    0  0.40346180553E+02  0.15869653100E+02  0.19907806794E+01  0.47787269794E+02  0.19999994297E+02 0.  0.
        -12    1    1    2    0    0 -0.40346180553E+02 -0.15869653100E+02 -0.19907806794E+01  0.43400730206E+02  0.00000000000E+00 0.  1.
         11    1    3    3    0    0  0.17178828217E+02 -0.15391232278E+01  0.33998998261E+00  0.17250989324E+02  0.51100000000E-03 0. -1.
        -11    1    3    3    0    0  0.63019420231E+01  0.25462889993E+01  0.40772466823E+01  0.79260331629E+01  0.51100000000E-03 0.  1.
         12    1    3    3    0    0  0.16865410313E+02  0.14862487328E+02 -0.24264559855E+01  0.22610247307E+02  0.00000000000E+00 0. -1.
</event>
<event>
 7    1  0.9175399E-010  0.4778727E+02  0.7816164E-02  0.1312668E+00
        -11   -1    0    0    0    0  0.00000000000E+00  0.00000000000E+00  0.45593999997E+02  0.45594000000E+02  0.51100000000E-03 0. -1.
         11   -1    0    0    0    0 -0.00000000000E+00 -0.00000000000E+00 -0.45593999997E+02  0.45594000000E+02  0.51100000000E-03 0.  1.
    9900012    2    1    2    0    0 -0.46793829144E+01 -0.39694185672E+02 -0.16914438295E+02  0.47787271625E+02  0.20000002647E+02 0.  0.
         12    1    1    2    0    0  0.46793829144E+01  0.39694185672E+02  0.16914438295E+02  0.43400728375E+02  0.00000000000E+00 0. -1.
         11    1    3    3    0    0  0.37708978731E+01 -0.17204700398E+02  0.65966551321E+00  0.17625451636E+02  0.51100000000E-03 0. -1.
        -11    1    3    3    0    0 -0.35999902749E+01 -0.85544203054E+01 -0.97484704735E+01  0.13459967072E+02  0.51100000000E-03 0.  1.
         12    1    3    3    0    0 -0.48502905126E+01 -0.13935064969E+02 -0.78256333347E+01  0.16701852917E+02  0.00000000000E+00 0. -1.
</event>
<event>
 7    1  0.9175399E-010  0.4778727E+02  0.7816164E-02  0.1312668E+00
        -11   -1    0    0    0    0  0.00000000000E+00  0.00000000000E+00  0.45593999997E+02  0.45594000000E+02  0.51100000000E-03 0. -1.
         11   -1    0    0    0    0 -0.00000000000E+00 -0.00000000000E+00 -0.45593999997E+02  0.45594000000E+02  0.51100000000E-03 0.  1.
    9900012    2    1    2    0    0  0.22369859762E+02  0.26347446667E+02 -0.26249286757E+02  0.47787266978E+02  0.19999981460E+02 0.  0.
         12    1    1    2    0    0 -0.22369859762E+02 -0.26347446667E+02  0.26249286757E+02  0.43400733022E+02  0.00000000000E+00 0. -1.
         11    1    3    3    0    0 -0.92006664347E+00 -0.10635432689E+01  0.47228969294E+00  0.14834772423E+01  0.51100000000E-03 0. -1.
        -11    1    3    3    0    0  0.25313431287E+01  0.43486806037E+01 -0.96639359131E+01  0.10895429254E+02  0.51100000000E-03 0.  1.
         12    1    3    3    0    0  0.20758583276E+02  0.23062309332E+02 -0.17057640537E+02  0.35408360482E+02  0.00000000000E+00 0. -1.
</event>
<event>
 7    1  0.1388543E-009  0.4778727E+02  0.7816164E-02  0.1312668E+00
        -11   -1    0    0    0    0  0.00000000000E+00  0.00000000000E+00  0.45593999997E+02  0.45594000000E+02  0.51100000000E-03 0. -1.
         11   -1    0    0    0    0 -0.00000000000E+00 -0.00000000000E+00 -0.45593999997E+02  0.45594000000E+02  0.51100000000E-03 0.  1.
    9900012    2    1    2    0    0 -0.16264569013E+02  0.53727903699E+01 -0.39877567077E+02  0.47787269160E+02  0.19999991406E+02 0.  0.
         12    1    1    2    0    0  0.16264569013E+02 -0.53727903699E+01  0.39877567077E+02  0.43400730840E+02  0.00000000000E+00 0. -1.
         11    1    3    3    0    0  0.38968603616E+01  0.15306035093E+01 -0.25384038440E+01  0.48960966205E+01  0.51100000000E-03 0. -1.
        -11    1    3    3    0    0 -0.12816822604E+02  0.47464400536E+01 -0.25430543856E+02  0.28870611284E+02  0.51100000000E-03 0.  1.
         12    1    3    3    0    0 -0.73446067702E+01 -0.90425319305E+00 -0.11908619377E+02  0.14020561255E+02  0.00000000000E+00 0. -1.
</event>
<event>
 7    1  0.9175399E-010  0.4778727E+02  0.7816164E-02  0.1312668E+00
        -11   -1    0    0    0    0  0.00000000000E+00  0.00000000000E+00  0.45593999997E+02  0.45594000000E+02  0.51100000000E-03 0. -1.
         11   -1    0    0    0    0 -0.00000000000E+00 -0.00000000000E+00 -0.45593999997E+02  0.45594000000E+02  0.51100000000E-03 0.  1.
    9900012    2    1    2    0    0 -0.71722824108E+01  0.21196174632E+02 -0.37187414459E+02  0.47787271341E+02  0.20000001351E+02 0.  0.
         12    1    1    2    0    0  0.71722824108E+01 -0.21196174632E+02  0.37187414459E+02  0.43400728659E+02  0.00000000000E+00 0. -1.
         11    1    3    3    0    0 -0.87295761684E+01  0.19677129994E+02 -0.18064238138E+02  0.28101808566E+02  0.51100000000E-03 0. -1.
        -11    1    3    3    0    0 -0.62082168111E+00  0.79966267309E-01 -0.13172134229E+02  0.13186998695E+02  0.51100000000E-03 0.  1.
         12    1    3    3    0    0  0.21781154387E+01  0.14390783699E+01 -0.59510420925E+01  0.64984640805E+01  0.00000000000E+00 0. -1.
</event>
<event>
 7    1  0.9175399E-010  0.4778727E+02  0.7816164E-02  0.1312668E+00
        -11   -1    0    0    0    0  0.00000000000E+00  0.00000000000E+00  0.45593999997E+02  0.45594000000E+02  0.51100000000E-03 0.  1.
         11   -1    0    0    0    0 -0.00000000000E+00 -0.00000000000E+00 -0.45593999997E+02  0.45594000000E+02  0.51100000000E-03 0. -1.
    9900012    2    1    2    0    0 -0.13594361672E+02  0.29863704444E+02 -0.28407318269E+02  0.47787271393E+02  0.20000001589E+02 0.  0.
         12    1    1    2    0    0  0.13594361672E+02 -0.29863704444E+02  0.28407318269E+02  0.43400728607E+02  0.00000000000E+00 0. -1.
         11    1    3    3    0    0  0.95054263786E+00  0.21604834719E+01 -0.63935185763E+01  0.68152989798E+01  0.51100000000E-03 0. -1.
        -11    1    3    3    0    0  0.21286614312E+01  0.92901773538E+01 -0.80507263950E+01  0.12476088750E+02  0.51100000000E-03 0.  1.
        -12    1    3    3    0    0 -0.16673565741E+02  0.18413043618E+02 -0.13963073298E+02  0.28495883663E+02  0.00000000000E+00 0.  1.
</event>
<event>
 7    1  0.9175399E-010  0.4778727E+02  0.7816164E-02  0.1312668E+00
        -11   -1    0    0    0    0  0.00000000000E+00  0.00000000000E+00  0.45593999997E+02  0.45594000000E+02  0.51100000000E-03 0. -1.
         11   -1    0    0    0    0 -0.00000000000E+00 -0.00000000000E+00 -0.45593999997E+02  0.45594000000E+02  0.51100000000E-03 0.  1.
    9900012    2    1    2    0    0  0.29633462331E+01 -0.34525623174E+02  0.26130888721E+02  0.47787269340E+02  0.19999992230E+02 0.  0.
        -12    1    1    2    0    0 -0.29633462331E+01  0.34525623174E+02 -0.26130888721E+02  0.43400730660E+02  0.00000000000E+00 0.  1.
         11    1    3    3    0    0 -0.29659568087E+01 -0.80685020658E+01  0.55477515873E+01  0.10231088569E+02  0.51100000000E-03 0. -1.
        -11    1    3    3    0    0 -0.31854456308E+01 -0.73633368148E+00 -0.16883137892E+00  0.32737983220E+01  0.51100000000E-03 0.  1.
        -12    1    3    3    0    0  0.91147486727E+01 -0.25720787427E+02  0.20751968513E+02  0.34282382449E+02  0.00000000000E+00 0.  1.
</event>
<event>
 7    1  0.9175399E-010  0.4778727E+02  0.7816164E-02  0.1312668E+00
        -11   -1    0    0    0    0  0.00000000000E+00  0.00000000000E+00  0.45593999997E+02  0.45594000000E+02  0.51100000000E-03 0.  1.
         11   -1    0    0    0    0 -0.00000000000E+00 -0.00000000000E+00 -0.45593999997E+02  0.45594000000E+02  0.51100000000E-03 0. -1.
    9900012    2    1    2    0    0 -0.21739930818E+02 -0.33203867726E+02  0.17564228683E+02  0.47787267827E+02  0.19999985330E+02 0.  0.
        -12    1    1    2    0    0  0.21739930818E+02  0.33203867726E+02 -0.17564228683E+02  0.43400732173E+02  0.00000000000E+00 0.  1.
         11    1    3    3    0    0 -0.11664846814E+02 -0.22462966336E+02  0.18481868706E+02  0.31340596340E+02  0.51100000000E-03 0. -1.
        -11    1    3    3    0    0 -0.64054470821E+01 -0.11000443733E+02 -0.44091940359E+00  0.12737108182E+02  0.51100000000E-03 0.  1.
         12    1    3    3    0    0 -0.36696369217E+01  0.25954234407E+00 -0.47672061930E+00  0.37095633051E+01  0.00000000000E+00 0. -1.
</event>
<event>
 7    1  0.9175399E-010  0.4778728E+02  0.7816164E-02  0.1312668E+00
        -11   -1    0    0    0    0  0.00000000000E+00  0.00000000000E+00  0.45593999997E+02  0.45594000000E+02  0.51100000000E-03 0. -1.
         11   -1    0    0    0    0 -0.00000000000E+00 -0.00000000000E+00 -0.45593999997E+02  0.45594000000E+02  0.51100000000E-03 0.  1.
    9900012    2    1    2    0    0 -0.33989650858E+02  0.56431792316E+01  0.26390917535E+02  0.47787281508E+02  0.20000047708E+02 0.  0.
        -12    1    1    2    0    0  0.33989650858E+02 -0.56431792316E+01 -0.26390917535E+02  0.43400718492E+02  0.00000000000E+00 0.  1.
         11    1    3    3    0    0 -0.20588203446E+02  0.39839115539E+01  0.10980864752E+02  0.23671186353E+02  0.51100000000E-03 0. -1.
        -11    1    3    3    0    0 -0.13173664387E+01  0.23713684958E+01  0.10844583723E+02  0.11178722613E+02  0.51100000000E-03 0.  1.
        -12    1    3    3    0    0 -0.12084080973E+02 -0.71210081804E+00  0.45654690598E+01  0.12937372541E+02  0.00000000000E+00 0.  1.
</event>
<event>
 7    1  0.9175399E-010  0.4778730E+02  0.7816164E-02  0.1312668E+00
        -11   -1    0    0    0    0  0.00000000000E+00  0.00000000000E+00  0.45593999997E+02  0.45594000000E+02  0.51100000000E-03 0. -1.
         11   -1    0    0    0    0 -0.00000000000E+00 -0.00000000000E+00 -0.45593999997E+02  0.45594000000E+02  0.51100000000E-03 0.  1.
    9900012    2    1    2    0    0 -0.24074152829E+02  0.11343754413E+02  0.34283742768E+02  0.47787301655E+02  0.20000139565E+02 0.  0.
        -12    1    1    2    0    0  0.24074152829E+02 -0.11343754413E+02 -0.34283742768E+02  0.43400698345E+02  0.00000000000E+00 0.  1.
         11    1    3    3    0    0 -0.14620830937E+02  0.38457588661E+01  0.28632631529E+02  0.32378791625E+02  0.51100000000E-03 0. -1.
        -11    1    3    3    0    0 -0.11293673554E+01  0.36315282703E+01  0.48957825185E+01  0.61993673008E+01  0.51100000000E-03 0.  1.
         12    1    3    3    0    0 -0.83239545366E+01  0.38664672769E+01  0.75532872079E+00  0.92091427292E+01  0.00000000000E+00 0. -1.
</event>
<event>
 7    1  0.9175399E-010  0.4778727E+02  0.7816164E-02  0.1312668E+00
        -11   -1    0    0    0    0  0.00000000000E+00  0.00000000000E+00  0.45593999997E+02  0.45594000000E+02  0.51100000000E-03 0. -1.
         11   -1    0    0    0    0 -0.00000000000E+00 -0.00000000000E+00 -0.45593999997E+02  0.45594000000E+02  0.51100000000E-03 0.  1.
    9900012    2    1    2    0    0 -0.11514342363E+02 -0.23645093464E+02  0.34524666069E+02  0.47787273138E+02  0.20000009546E+02 0.  0.
        -12    1    1    2    0    0  0.11514342363E+02  0.23645093464E+02 -0.34524666069E+02  0.43400726862E+02  0.00000000000E+00 0.  1.
         11    1    3    3    0    0 -0.85715733220E+01 -0.93029498331E+01  0.19291714483E+02  0.23069178416E+02  0.51100000000E-03 0. -1.
        -11    1    3    3    0    0  0.66341758993E-01 -0.36548608959E+01 -0.20387601333E+01  0.41855647815E+01  0.51100000000E-03 0.  1.
        -12    1    3    3    0    0 -0.30091107997E+01 -0.10687282735E+02  0.17271711719E+02  0.20532529941E+02  0.00000000000E+00 0.  1.
</event>
<event>
 7    1  0.9175399E-010  0.4778728E+02  0.7816164E-02  0.1312668E+00
        -11   -1    0    0    0    0  0.00000000000E+00  0.00000000000E+00  0.45593999997E+02  0.45594000000E+02  0.51100000000E-03 0. -1.
         11   -1    0    0    0    0 -0.00000000000E+00 -0.00000000000E+00 -0.45593999997E+02  0.45594000000E+02  0.51100000000E-03 0.  1.
    9900012    2    1    2    0    0 -0.13317083112E+02 -0.12579746184E+02  0.39344989335E+02  0.47787275323E+02  0.20000019509E+02 0.  0.
        -12    1    1    2    0    0  0.13317083112E+02  0.12579746184E+02 -0.39344989335E+02  0.43400724677E+02  0.00000000000E+00 0.  1.
         11    1    3    3    0    0 -0.32614926898E+01 -0.12906735398E+01  0.44280262383E+01  0.56489458645E+01  0.51100000000E-03 0. -1.
        -11    1    3    3    0    0 -0.24320537931E+00 -0.51529130171E+01  0.28383395529E+02  0.28848376097E+02  0.51100000000E-03 0.  1.
        -12    1    3    3    0    0 -0.98123850427E+01 -0.61361596268E+01  0.65335675681E+01  0.13289953362E+02  0.00000000000E+00 0.  1.
</event>
<event>
 7    1  0.9175399E-010  0.4778727E+02  0.7816164E-02  0.1312668E+00
        -11   -1    0    0    0    0  0.00000000000E+00  0.00000000000E+00  0.45593999997E+02  0.45594000000E+02  0.51100000000E-03 0. -1.
         11   -1    0    0    0    0 -0.00000000000E+00 -0.00000000000E+00 -0.45593999997E+02  0.45594000000E+02  0.51100000000E-03 0.  1.
    9900012    2    1    2    0    0 -0.24526156666E+02  0.34919181178E+02 -0.79209624952E+01  0.47787271644E+02  0.20000002733E+02 0.  0.
         12    1    1    2    0    0  0.24526156666E+02 -0.34919181178E+02  0.79209624952E+01  0.43400728356E+02  0.00000000000E+00 0. -1.
         11    1    3    3    0    0 -0.20104004152E+01  0.22208886959E+01  0.20637474278E+01  0.36377342036E+01  0.51100000000E-03 0. -1.
        -11    1    3    3    0    0 -0.40797096620E+00  0.27899690574E+01 -0.61432727257E+01  0.67594502509E+01  0.51100000000E-03 0.  1.
        -12    1    3    3    0    0 -0.22107785285E+02  0.29908323425E+02 -0.38414371973E+01  0.37390087189E+02  0.00000000000E+00 0.  1.
</event>
<event>
 7    1  0.1398676E-009  0.4778727E+02  0.7816164E-02  0.1312668E+00
        -11   -1    0    0    0    0  0.00000000000E+00  0.00000000000E+00  0.45593999997E+02  0.45594000000E+02  0.51100000000E-03 0. -1.
         11   -1    0    0    0    0 -0.00000000000E+00 -0.00000000000E+00 -0.45593999997E+02  0.45594000000E+02  0.51100000000E-03 0.  1.
    9900012    2    1    2    0    0  0.11451469411E+02  0.27249615848E+01 -0.41773934084E+02  0.47787272631E+02  0.20000007234E+02 0.  0.
         12    1    1    2    0    0 -0.11451469411E+02 -0.27249615848E+01  0.41773934084E+02  0.43400727369E+02  0.00000000000E+00 0. -1.
         11    1    3    3    0    0  0.85244008358E+01 -0.35766327856E+01 -0.79578837377E+01  0.12197771335E+02  0.51100000000E-03 0. -1.
        -11    1    3    3    0    0  0.47111473574E+01  0.31449594775E+01 -0.99482557287E+01  0.11447858832E+02  0.51100000000E-03 0.  1.
         12    1    3    3    0    0 -0.17840787821E+01  0.31566348929E+01 -0.23867794618E+02  0.24141642464E+02  0.00000000000E+00 0. -1.
</event>
<event>
 7    1  0.9175399E-010  0.4778727E+02  0.7816164E-02  0.1312668E+00
        -11   -1    0    0    0    0  0.00000000000E+00  0.00000000000E+00  0.45593999997E+02  0.45594000000E+02  0.51100000000E-03 0. -1.
         11   -1    0    0    0    0 -0.00000000000E+00 -0.00000000000E+00 -0.45593999997E+02  0.45594000000E+02  0.51100000000E-03 0.  1.
    9900012    2    1    2    0    0  0.55358297653E+01 -0.36358825701E+02  0.23043734283E+02  0.47787270660E+02  0.19999998245E+02 0.  0.
        -12    1    1    2    0    0 -0.55358297653E+01  0.36358825701E+02 -0.23043734283E+02  0.43400729340E+02  0.00000000000E+00 0.  1.
         11    1    3    3    0    0  0.84189039404E+01 -0.25023794153E+02  0.21453003885E+02  0.34019106298E+02  0.51100000000E-03 0. -1.
        -11    1    3    3    0    0 -0.24469865345E+01 -0.11013474632E+02 -0.80615432548E+00  0.11310802431E+02  0.51100000000E-03 0.  1.
        -12    1    3    3    0    0 -0.43608764062E+00 -0.32155691639E+00  0.23968847230E+01  0.24573619303E+01  0.00000000000E+00 0.  1.
</event>
<event>
 7    1  0.9175399E-010  0.4778731E+02  0.7816164E-02  0.1312668E+00
        -11   -1    0    0    0    0  0.00000000000E+00  0.00000000000E+00  0.45593999997E+02  0.45594000000E+02  0.51100000000E-03 0. -1.
         11   -1    0    0    0    0 -0.00000000000E+00 -0.00000000000E+00 -0.45593999997E+02  0.45594000000E+02  0.51100000000E-03 0.  1.
    9900012    2    1    2    0    0 -0.80131493899E+01 -0.30416569058E+02 -0.29903872229E+02  0.47787310942E+02  0.20000181910E+02 0.  0.
         12    1    1    2    0    0  0.80131493899E+01  0.30416569058E+02  0.29903872229E+02  0.43400689058E+02  0.00000000000E+00 0. -1.
         11    1    3    3    0    0 -0.13710375197E+01 -0.70681656945E+00  0.71263095128E+00  0.16991694080E+01  0.51100000000E-03 0. -1.
        -11    1    3    3    0    0 -0.51564054808E+01 -0.66797188671E+01 -0.93435118740E+00  0.84900043598E+01  0.51100000000E-03 0.  1.
        -12    1    3    3    0    0 -0.14857063894E+01 -0.23030033621E+02 -0.29682151993E+02  0.37598137175E+02  0.00000000000E+00 0.  1.
</event>
<event>
 7    1  0.9175399E-010  0.4778727E+02  0.7816164E-02  0.1312668E+00
        -11   -1    0    0    0    0  0.00000000000E+00  0.00000000000E+00  0.45593999997E+02  0.45594000000E+02  0.51100000000E-03 0. -1.
         11   -1    0    0    0    0 -0.00000000000E+00 -0.00000000000E+00 -0.45593999997E+02  0.45594000000E+02  0.51100000000E-03 0.  1.
    9900012    2    1    2    0    0 -0.64036334653E+01 -0.65683650323E+01  0.42420197572E+02  0.47787273015E+02  0.20000008984E+02 0.  0.
        -12    1    1    2    0    0  0.64036334653E+01  0.65683650323E+01 -0.42420197572E+02  0.43400726985E+02  0.00000000000E+00 0.  1.
         11    1    3    3    0    0 -0.72242162486E+01 -0.47877672794E+01  0.12685079293E+02  0.15363048293E+02  0.51100000000E-03 0. -1.
        -11    1    3    3    0    0  0.21415735170E+01  0.18347812866E+01  0.28101679751E+02  0.28242825011E+02  0.51100000000E-03 0.  1.
        -12    1    3    3    0    0 -0.13209907338E+01 -0.36153790395E+01  0.16334385286E+01  0.41813997112E+01  0.00000000000E+00 0.  1.
</event>
<event>
 7    1  0.9175399E-010  0.4778727E+02  0.7816164E-02  0.1312668E+00
        -11   -1    0    0    0    0  0.00000000000E+00  0.00000000000E+00  0.45593999997E+02  0.45594000000E+02  0.51100000000E-03 0.  1.
         11   -1    0    0    0    0 -0.00000000000E+00 -0.00000000000E+00 -0.45593999997E+02  0.45594000000E+02  0.51100000000E-03 0. -1.
    9900012    2    1    2    0    0 -0.23787782446E+02  0.61120842219E+01 -0.35782778644E+02  0.47787269422E+02  0.19999992603E+02 0.  0.
         12    1    1    2    0    0  0.23787782446E+02 -0.61120842219E+01  0.35782778644E+02  0.43400730578E+02  0.00000000000E+00 0. -1.
         11    1    3    3    0    0 -0.10142945116E+02  0.68270481678E+00 -0.24728347582E+02  0.26736428256E+02  0.51100000000E-03 0. -1.
        -11    1    3    3    0    0 -0.13336660836E+02  0.77329375389E+01 -0.10526928200E+02  0.18667647490E+02  0.51100000000E-03 0.  1.
         12    1    3    3    0    0 -0.30817649369E+00 -0.23035581338E+01 -0.52750286191E+00  0.23831936758E+01  0.00000000000E+00 0. -1.
</event>
<event>
 7    1  0.9175399E-010  0.4778727E+02  0.7816164E-02  0.1312668E+00
        -11   -1    0    0    0    0  0.00000000000E+00  0.00000000000E+00  0.45593999997E+02  0.45594000000E+02  0.51100000000E-03 0.  1.
         11   -1    0    0    0    0 -0.00000000000E+00 -0.00000000000E+00 -0.45593999997E+02  0.45594000000E+02  0.51100000000E-03 0. -1.
    9900012    2    1    2    0    0  0.27140459751E+02 -0.33131190325E+02  0.70244663059E+01  0.47787268961E+02  0.19999990500E+02 0.  0.
        -12    1    1    2    0    0 -0.27140459751E+02  0.33131190325E+02 -0.70244663059E+01  0.43400731039E+02  0.00000000000E+00 0.  1.
         11    1    3    3    0    0  0.62760012820E+01 -0.72077012772E+01 -0.56243295443E+01  0.11089284597E+02  0.51100000000E-03 0. -1.
        -11    1    3    3    0    0  0.27852765474E+01 -0.33712078683E+00  0.25226398538E+01  0.37729468541E+01  0.51100000000E-03 0.  1.
         12    1    3    3    0    0  0.18079181921E+02 -0.25586368261E+02  0.10126155996E+02  0.32925037510E+02  0.00000000000E+00 0. -1.
</event>
<event>
 7    1  0.9175399E-010  0.4778727E+02  0.7816164E-02  0.1312668E+00
        -11   -1    0    0    0    0  0.00000000000E+00  0.00000000000E+00  0.45593999997E+02  0.45594000000E+02  0.51100000000E-03 0. -1.
         11   -1    0    0    0    0 -0.00000000000E+00 -0.00000000000E+00 -0.45593999997E+02  0.45594000000E+02  0.51100000000E-03 0.  1.
    9900012    2    1    2    0    0 -0.58181296865E+01 -0.16406831882E+02 -0.39756616591E+02  0.47787270418E+02  0.19999997146E+02 0.  0.
         12    1    1    2    0    0  0.58181296865E+01  0.16406831882E+02  0.39756616591E+02  0.43400729582E+02  0.00000000000E+00 0. -1.
         11    1    3    3    0    0  0.12774720248E+01 -0.82916044673E-01 -0.22772196687E+01  0.26123819639E+01  0.51100000000E-03 0. -1.
        -11    1    3    3    0    0  0.34350245913E+00  0.20287129029E+01 -0.15314629398E+02  0.15452234267E+02  0.51100000000E-03 0.  1.
        -12    1    3    3    0    0 -0.74391041704E+01 -0.18352628741E+02 -0.22164767524E+02  0.29722654187E+02  0.00000000000E+00 0.  1.
</event>
<event>
 7    1  0.9175399E-010  0.4778726E+02  0.7816164E-02  0.1312668E+00
        -11   -1    0    0    0    0  0.00000000000E+00  0.00000000000E+00  0.45593999997E+02  0.45594000000E+02  0.51100000000E-03 0. -1.
         11   -1    0    0    0    0 -0.00000000000E+00 -0.00000000000E+00 -0.45593999997E+02  0.45594000000E+02  0.51100000000E-03 0.  1.
    9900012    2    1    2    0    0  0.66781957791E+01 -0.42356565813E+02 -0.67042632100E+01  0.47787261394E+02  0.19999956001E+02 0.  0.
         12    1    1    2    0    0 -0.66781957791E+01  0.42356565813E+02  0.67042632100E+01  0.43400738606E+02  0.00000000000E+00 0. -1.
         11    1    3    3    0    0  0.73125153394E+01 -0.29631745684E+02 -0.71429741721E+01  0.31345419333E+02  0.51100000000E-03 0. -1.
        -11    1    3    3    0    0 -0.32549808209E+01  0.15619679765E+00 -0.32423517864E+00  0.32748169867E+01  0.51100000000E-03 0.  1.
         12    1    3    3    0    0  0.26206612607E+01 -0.12881016927E+02  0.76294614066E+00  0.13167025075E+02  0.00000000000E+00 0. -1.
</event>
<event>
 7    1  0.9175399E-010  0.4778727E+02  0.7816164E-02  0.1312668E+00
        -11   -1    0    0    0    0  0.00000000000E+00  0.00000000000E+00  0.45593999997E+02  0.45594000000E+02  0.51100000000E-03 0. -1.
         11   -1    0    0    0    0 -0.00000000000E+00 -0.00000000000E+00 -0.45593999997E+02  0.45594000000E+02  0.51100000000E-03 0.  1.
    9900012    2    1    2    0    0  0.20846695780E+02 -0.15169985997E+02  0.34912897649E+02  0.47787267030E+02  0.19999981696E+02 0.  0.
        -12    1    1    2    0    0 -0.20846695780E+02  0.15169985997E+02 -0.34912897649E+02  0.43400732970E+02  0.00000000000E+00 0.  1.
         11    1    3    3    0    0  0.51405344929E+01 -0.14175197363E+02  0.17019625100E+02  0.22738270690E+02  0.51100000000E-03 0. -1.
        -11    1    3    3    0    0  0.14665703331E+02 -0.19372657857E+01  0.12169223547E+02  0.19155308792E+02  0.51100000000E-03 0.  1.
        -12    1    3    3    0    0  0.10404579567E+01  0.94247715203E+00  0.57240490016E+01  0.58936875481E+01  0.00000000000E+00 0.  1.
</event>
<event>
 7    1  0.9175399E-010  0.4778727E+02  0.7816164E-02  0.1312668E+00
        -11   -1    0    0    0    0  0.00000000000E+00  0.00000000000E+00  0.45593999997E+02  0.45594000000E+02  0.51100000000E-03 0.  1.
         11   -1    0    0    0    0 -0.00000000000E+00 -0.00000000000E+00 -0.45593999997E+02  0.45594000000E+02  0.51100000000E-03 0. -1.
    9900012    2    1    2    0    0 -0.26565080255E+02  0.28306409909E+01 -0.34203903553E+02  0.47787273789E+02  0.20000012514E+02 0.  0.
         12    1    1    2    0    0  0.26565080255E+02 -0.28306409909E+01  0.34203903553E+02  0.43400726211E+02  0.00000000000E+00 0. -1.
         11    1    3    3    0    0  0.10027765879E+01 -0.18467075574E+00  0.10435731057E+01  0.14590096851E+01  0.51100000000E-03 0. -1.
        -11    1    3    3    0    0 -0.24202817777E+02 -0.96242664872E+00 -0.32196870284E+02  0.40290707486E+02  0.51100000000E-03 0.  1.
        -12    1    3    3    0    0 -0.33650390658E+01  0.39777383954E+01 -0.30506063746E+01  0.60375566174E+01  0.00000000000E+00 0.  1.
</event>
<event>
 7    1  0.9175399E-010  0.4778727E+02  0.7816164E-02  0.1312668E+00
        -11   -1    0    0    0    0  0.00000000000E+00  0.00000000000E+00  0.45593999997E+02  0.45594000000E+02  0.51100000000E-03 0. -1.
         11   -1    0    0    0    0 -0.00000000000E+00 -0.00000000000E+00 -0.45593999997E+02  0.45594000000E+02  0.51100000000E-03 0.  1.
    9900012    2    1    2    0    0  0.15382613495E+02  0.96300344431E+01 -0.39424113696E+02  0.47787273025E+02  0.20000009028E+02 0.  0.
         12    1    1    2    0    0 -0.15382613495E+02 -0.96300344431E+01  0.39424113696E+02  0.43400726975E+02  0.00000000000E+00 0. -1.
         11    1    3    3    0    0  0.83292451606E+01  0.10075487230E+02 -0.13901067782E+02  0.19082228738E+02  0.51100000000E-03 0. -1.
        -11    1    3    3    0    0  0.45055729208E+01 -0.41736689027E+01 -0.57167978176E+01  0.83905588016E+01  0.51100000000E-03 0.  1.
        -12    1    3    3    0    0  0.25477954139E+01  0.37282161154E+01 -0.19806248096E+02  0.20314485485E+02  0.00000000000E+00 0.  1.
</event>
<event>
 7    1  0.9175399E-010  0.4778723E+02  0.7816164E-02  0.1312668E+00
        -11   -1    0    0    0    0  0.00000000000E+00  0.00000000000E+00  0.45593999997E+02  0.45594000000E+02  0.51100000000E-03 0. -1.
         11   -1    0    0    0    0 -0.00000000000E+00 -0.00000000000E+00 -0.45593999997E+02  0.45594000000E+02  0.51100000000E-03 0.  1.
    9900012    2    1    2    0    0  0.14757096658E+02 -0.10563601608E+02  0.39424166472E+02  0.47787234076E+02  0.19999831447E+02 0.  0.
        -12    1    1    2    0    0 -0.14757096658E+02  0.10563601608E+02 -0.39424166472E+02  0.43400765924E+02  0.00000000000E+00 0.  1.
         11    1    3    3    0    0  0.45224976969E+01 -0.60349269746E+01  0.33126963897E+02  0.33974535557E+02  0.51100000000E-03 0. -1.
        -11    1    3    3    0    0  0.17348483405E+01 -0.24834320716E+01 -0.15511359652E-01  0.30294181755E+01  0.51100000000E-03 0.  1.
         12    1    3    3    0    0  0.84997506208E+01 -0.20452425618E+01  0.63127139353E+01  0.10783280344E+02  0.00000000000E+00 0. -1.
</event>
<event>
 7    1  0.9175399E-010  0.4778730E+02  0.7816164E-02  0.1312668E+00
        -11   -1    0    0    0    0  0.00000000000E+00  0.00000000000E+00  0.45593999997E+02  0.45594000000E+02  0.51100000000E-03 0. -1.
         11   -1    0    0    0    0 -0.00000000000E+00 -0.00000000000E+00 -0.45593999997E+02  0.45594000000E+02  0.51100000000E-03 0.  1.
    9900012    2    1    2    0    0  0.88941260705E+01 -0.38446341801E+02  0.18066384969E+02  0.47787297906E+02  0.20000122472E+02 0.  0.
        -12    1    1    2    0    0 -0.88941260705E+01  0.38446341801E+02 -0.18066384969E+02  0.43400702094E+02  0.00000000000E+00 0.  1.
         11    1    3    3    0    0  0.69001342096E+01 -0.27297368659E+02  0.16469197708E+02  0.32618900368E+02  0.51100000000E-03 0. -1.
        -11    1    3    3    0    0  0.12828706271E+01  0.17474376072E+01  0.19680039556E+00  0.21767006900E+01  0.51100000000E-03 0.  1.
        -12    1    3    3    0    0  0.71112123376E+00 -0.12896410749E+02  0.14003868657E+01  0.12991696848E+02  0.00000000000E+00 0.  1.
</event>
<event>
 7    1  0.9175399E-010  0.4778727E+02  0.7816164E-02  0.1312668E+00
        -11   -1    0    0    0    0  0.00000000000E+00  0.00000000000E+00  0.45593999997E+02  0.45594000000E+02  0.51100000000E-03 0. -1.
         11   -1    0    0    0    0 -0.00000000000E+00 -0.00000000000E+00 -0.45593999997E+02  0.45594000000E+02  0.51100000000E-03 0.  1.
    9900012    2    1    2    0    0  0.19815353270E+02 -0.69133166340E+01  0.37989220995E+02  0.47787273233E+02  0.20000009978E+02 0.  0.
        -12    1    1    2    0    0 -0.19815353270E+02  0.69133166340E+01 -0.37989220995E+02  0.43400726767E+02  0.00000000000E+00 0.  1.
         11    1    3    3    0    0  0.28036719576E+01 -0.31834409528E+01 -0.89153294326E+00  0.43347092170E+01  0.51100000000E-03 0. -1.
        -11    1    3    3    0    0  0.14843813935E+01 -0.35767425294E+01  0.79160388874E+01  0.88124994849E+01  0.51100000000E-03 0.  1.
         12    1    3    3    0    0  0.15527299919E+02 -0.15313315174E+00  0.30964715051E+02  0.34640064531E+02  0.00000000000E+00 0. -1.
</event>
<event>
 7    1  0.9175399E-010  0.4778727E+02  0.7816164E-02  0.1312668E+00
        -11   -1    0    0    0    0  0.00000000000E+00  0.00000000000E+00  0.45593999997E+02  0.45594000000E+02  0.51100000000E-03 0. -1.
         11   -1    0    0    0    0 -0.00000000000E+00 -0.00000000000E+00 -0.45593999997E+02  0.45594000000E+02  0.51100000000E-03 0.  1.
    9900012    2    1    2    0    0  0.74659754315E+01 -0.38858670670E+02 -0.17829362394E+02  0.47787271449E+02  0.20000001843E+02 0.  0.
         12    1    1    2    0    0 -0.74659754315E+01  0.38858670670E+02  0.17829362394E+02  0.43400728551E+02  0.00000000000E+00 0. -1.
         11    1    3    3    0    0 -0.21416649477E+01 -0.67579997434E+01 -0.81679775353E+01  0.10815412454E+02  0.51100000000E-03 0. -1.
        -11    1    3    3    0    0 -0.26683984649E+01 -0.89580889303E+01 -0.40172505802E+01  0.10173790352E+02  0.51100000000E-03 0.  1.
         12    1    3    3    0    0  0.12276038844E+02 -0.23142581997E+02 -0.56441342782E+01  0.26798068642E+02  0.00000000000E+00 0. -1.
</event>
<event>
 7    1  0.9175399E-010  0.4778727E+02  0.7816164E-02  0.1312668E+00
        -11   -1    0    0    0    0  0.00000000000E+00  0.00000000000E+00  0.45593999997E+02  0.45594000000E+02  0.51100000000E-03 0. -1.
         11   -1    0    0    0    0 -0.00000000000E+00 -0.00000000000E+00 -0.45593999997E+02  0.45594000000E+02  0.51100000000E-03 0.  1.
    9900012    2    1    2    0    0 -0.10490006935E+02 -0.14608962069E+02  0.39498876794E+02  0.47787270903E+02  0.19999999354E+02 0.  0.
        -12    1    1    2    0    0  0.10490006935E+02  0.14608962069E+02 -0.39498876794E+02  0.43400729097E+02  0.00000000000E+00 0.  1.
         11    1    3    3    0    0 -0.10091999765E+02 -0.98038296883E+01  0.17279118811E+02  0.22282986401E+02  0.51100000000E-03 0. -1.
        -11    1    3    3    0    0  0.27749299495E+01 -0.33349754392E+01  0.21500819259E+02  0.21934163455E+02  0.51100000000E-03 0.  1.
        -12    1    3    3    0    0 -0.31729371195E+01 -0.14701569413E+01  0.71893872324E+00  0.35701210461E+01  0.00000000000E+00 0.  1.
</event>
<event>
 7    1  0.9175399E-010  0.4778727E+02  0.7816164E-02  0.1312668E+00
        -11   -1    0    0    0    0  0.00000000000E+00  0.00000000000E+00  0.45593999997E+02  0.45594000000E+02  0.51100000000E-03 0. -1.
         11   -1    0    0    0    0 -0.00000000000E+00 -0.00000000000E+00 -0.45593999997E+02  0.45594000000E+02  0.51100000000E-03 0.  1.
    9900012    2    1    2    0    0  0.24984944024E+02  0.20666532867E+02  0.28849091151E+02  0.47787273406E+02  0.20000010768E+02 0.  0.
        -12    1    1    2    0    0 -0.24984944024E+02 -0.20666532867E+02 -0.28849091151E+02  0.43400726594E+02  0.00000000000E+00 0.  1.
         11    1    3    3    0    0  0.20428330447E+02  0.16957322207E+02  0.22708341154E+02  0.34936173510E+02  0.51100000000E-03 0. -1.
        -11    1    3    3    0    0 -0.11391953721E+01 -0.18647553216E+01  0.40660950235E+01  0.46160814016E+01  0.51100000000E-03 0.  1.
         12    1    3    3    0    0  0.56958089494E+01  0.55739659812E+01  0.20746549732E+01  0.82350184946E+01  0.00000000000E+00 0. -1.
</event>
<event>
 7    1  0.9175399E-010  0.4778728E+02  0.7816164E-02  0.1312668E+00
        -11   -1    0    0    0    0  0.00000000000E+00  0.00000000000E+00  0.45593999997E+02  0.45594000000E+02  0.51100000000E-03 0. -1.
         11   -1    0    0    0    0 -0.00000000000E+00 -0.00000000000E+00 -0.45593999997E+02  0.45594000000E+02  0.51100000000E-03 0.  1.
    9900012    2    1    2    0    0  0.32504236810E+02 -0.56657098292E+01 -0.28195693609E+02  0.47787276313E+02  0.20000024020E+02 0.  0.
         12    1    1    2    0    0 -0.32504236810E+02  0.56657098292E+01  0.28195693609E+02  0.43400723687E+02  0.00000000000E+00 0. -1.
         11    1    3    3    0    0  0.72266617434E-01 -0.39570173872E+01 -0.41081417471E+01  0.57043876045E+01  0.51100000000E-03 0. -1.
        -11    1    3    3    0    0  0.31166237734E+02 -0.44540788157E+01 -0.22082186963E+02  0.38455118956E+02  0.51100000000E-03 0.  1.
        -12    1    3    3    0    0  0.12657324591E+01  0.27453863737E+01 -0.20053648992E+01  0.36277697527E+01  0.00000000000E+00 0.  1.
</event>
<event>
 7    1  0.9175399E-010  0.4778728E+02  0.7816164E-02  0.1312668E+00
        -11   -1    0    0    0    0  0.00000000000E+00  0.00000000000E+00  0.45593999997E+02  0.45594000000E+02  0.51100000000E-03 0. -1.
         11   -1    0    0    0    0 -0.00000000000E+00 -0.00000000000E+00 -0.45593999997E+02  0.45594000000E+02  0.51100000000E-03 0.  1.
    9900012    2    1    2    0    0  0.29956678842E+01 -0.20958505919E+02 -0.37886535517E+02  0.47787279154E+02  0.20000036976E+02 0.  0.
         12    1    1    2    0    0 -0.29956678842E+01  0.20958505919E+02  0.37886535517E+02  0.43400720846E+02  0.00000000000E+00 0. -1.
         11    1    3    3    0    0  0.15230994649E+01  0.36071809521E+01 -0.70681273493E+01  0.80802234430E+01  0.51100000000E-03 0. -1.
        -11    1    3    3    0    0  0.26382289304E+01 -0.22441973130E+02 -0.27365416167E+02  0.35488990012E+02  0.51100000000E-03 0.  1.
         12    1    3    3    0    0 -0.11656605111E+01 -0.21237137417E+01 -0.34529920011E+01  0.42180656993E+01  0.00000000000E+00 0. -1.
</event>
<event>
 7    1  0.9175399E-010  0.4778727E+02  0.7816164E-02  0.1312668E+00
        -11   -1    0    0    0    0  0.00000000000E+00  0.00000000000E+00  0.45593999997E+02  0.45594000000E+02  0.51100000000E-03 0. -1.
         11   -1    0    0    0    0 -0.00000000000E+00 -0.00000000000E+00 -0.45593999997E+02  0.45594000000E+02  0.51100000000E-03 0.  1.
    9900012    2    1    2    0    0 -0.11725985554E+02 -0.16846291856E+02  0.38240387759E+02  0.47787267950E+02  0.19999985890E+02 0.  0.
        -12    1    1    2    0    0  0.11725985554E+02  0.16846291856E+02 -0.38240387759E+02  0.43400732050E+02  0.00000000000E+00 0.  1.
         11    1    3    3    0    0 -0.67378690335E+00 -0.14200831222E+02  0.21972874037E+02  0.26171067802E+02  0.51100000000E-03 0. -1.
        -11    1    3    3    0    0 -0.26962675136E+01 -0.32340965728E+00 -0.47876890653E+00  0.27574757004E+01  0.51100000000E-03 0.  1.
         12    1    3    3    0    0 -0.83559311369E+01 -0.23220509773E+01  0.16746282629E+02  0.18858724448E+02  0.00000000000E+00 0. -1.
</event>
<event>
 7    1  0.9175399E-010  0.4778727E+02  0.7816164E-02  0.1312668E+00
        -11   -1    0    0    0    0  0.00000000000E+00  0.00000000000E+00  0.45593999997E+02  0.45594000000E+02  0.51100000000E-03 0. -1.
         11   -1    0    0    0    0 -0.00000000000E+00 -0.00000000000E+00 -0.45593999997E+02  0.45594000000E+02  0.51100000000E-03 0.  1.
    9900012    2    1    2    0    0 -0.29196989674E+02  0.26027917986E+02  0.18807094794E+02  0.47787268032E+02  0.19999986267E+02 0.  0.
        -12    1    1    2    0    0  0.29196989674E+02 -0.26027917986E+02 -0.18807094794E+02  0.43400731968E+02  0.00000000000E+00 0.  1.
         11    1    3    3    0    0 -0.29830930823E+02  0.23102054825E+02  0.17727784821E+02  0.41687692739E+02  0.51100000000E-03 0. -1.
        -11    1    3    3    0    0  0.18012382274E+01  0.35478598377E+01  0.20337019065E+01  0.44685246206E+01  0.51100000000E-03 0.  1.
         12    1    3    3    0    0 -0.11672970783E+01 -0.62199667628E+00 -0.95439193443E+00  0.16310506732E+01  0.00000000000E+00 0. -1.
</event>
<event>
 7    1  0.9175399E-010  0.4778727E+02  0.7816164E-02  0.1312668E+00
        -11   -1    0    0    0    0  0.00000000000E+00  0.00000000000E+00  0.45593999997E+02  0.45594000000E+02  0.51100000000E-03 0.  1.
         11   -1    0    0    0    0 -0.00000000000E+00 -0.00000000000E+00 -0.45593999997E+02  0.45594000000E+02  0.51100000000E-03 0. -1.
    9900012    2    1    2    0    0  0.19303604971E+02 -0.35342757492E+02 -0.16182825112E+02  0.47787268433E+02  0.19999988092E+02 0.  0.
         12    1    1    2    0    0 -0.19303604971E+02  0.35342757492E+02  0.16182825112E+02  0.43400731567E+02  0.00000000000E+00 0. -1.
         11    1    3    3    0    0  0.19189063842E+00  0.19550955640E+01 -0.10700516083E+01  0.22370139443E+01  0.51100000000E-03 0. -1.
        -11    1    3    3    0    0  0.89757046771E+01 -0.26990872848E+02 -0.11241423797E+02  0.30584965274E+02  0.51100000000E-03 0.  1.
        -12    1    3    3    0    0  0.10136009655E+02 -0.10306980207E+02 -0.38713497067E+01  0.14965289214E+02  0.00000000000E+00 0.  1.
</event>
<event>
 7    1  0.9175399E-010  0.4778729E+02  0.7816164E-02  0.1312668E+00
        -11   -1    0    0    0    0  0.00000000000E+00  0.00000000000E+00  0.45593999997E+02  0.45594000000E+02  0.51100000000E-03 0. -1.
         11   -1    0    0    0    0 -0.00000000000E+00 -0.00000000000E+00 -0.45593999997E+02  0.45594000000E+02  0.51100000000E-03 0.  1.
    9900012    2    1    2    0    0 -0.72717531214E+01 -0.42630134271E+02  0.36626595650E+01  0.47787287834E+02  0.20000076551E+02 0.  0.
        -12    1    1    2    0    0  0.72717531214E+01  0.42630134271E+02 -0.36626595650E+01  0.43400712166E+02  0.00000000000E+00 0.  1.
         11    1    3    3    0    0 -0.84072820927E+01 -0.26955740716E+02  0.60526561746E+01  0.28877828810E+02  0.51100000000E-03 0.  1.
        -11    1    3    3    0    0  0.47836249882E+01 -0.34457534965E+01 -0.16725426842E+01  0.61281061085E+01  0.51100000000E-03 0. -1.
         12    1    3    3    0    0 -0.36480960169E+01 -0.12228640058E+02 -0.71745392546E+00  0.12781352916E+02  0.00000000000E+00 0. -1.
</event>
<event>
 7    1  0.9175399E-010  0.4778727E+02  0.7816164E-02  0.1312668E+00
        -11   -1    0    0    0    0  0.00000000000E+00  0.00000000000E+00  0.45593999997E+02  0.45594000000E+02  0.51100000000E-03 0. -1.
         11   -1    0    0    0    0 -0.00000000000E+00 -0.00000000000E+00 -0.45593999997E+02  0.45594000000E+02  0.51100000000E-03 0.  1.
    9900012    2    1    2    0    0  0.13836616165E+02 -0.25007875000E+02 -0.32661559723E+02  0.47787271407E+02  0.20000001652E+02 0.  0.
         12    1    1    2    0    0 -0.13836616165E+02  0.25007875000E+02  0.32661559723E+02  0.43400728593E+02  0.00000000000E+00 0. -1.
         11    1    3    3    0    0  0.61053424676E+01 -0.21131806538E+02 -0.28206457865E+02  0.35769158779E+02  0.51100000000E-03 0. -1.
        -11    1    3    3    0    0  0.83961279431E+01 -0.29300084052E+01 -0.55029520492E+01  0.10457647690E+02  0.51100000000E-03 0.  1.
         12    1    3    3    0    0 -0.66485424566E+00 -0.94606005629E+00  0.10478501913E+01  0.15604649376E+01  0.00000000000E+00 0. -1.
</event>
<event>
 7    1  0.9175399E-010  0.4778727E+02  0.7816164E-02  0.1312668E+00
        -11   -1    0    0    0    0  0.00000000000E+00  0.00000000000E+00  0.45593999997E+02  0.45594000000E+02  0.51100000000E-03 0. -1.
         11   -1    0    0    0    0 -0.00000000000E+00 -0.00000000000E+00 -0.45593999997E+02  0.45594000000E+02  0.51100000000E-03 0.  1.
    9900012    2    1    2    0    0  0.24766848212E+02 -0.21692439765E+02  0.28278344685E+02  0.47787268538E+02  0.19999988571E+02 0.  0.
        -12    1    1    2    0    0 -0.24766848212E+02  0.21692439765E+02 -0.28278344685E+02  0.43400731462E+02  0.00000000000E+00 0.  1.
         11    1    3    3    0    0  0.17632864536E+02 -0.16912871006E+02  0.22264327812E+02  0.33055459618E+02  0.51100000000E-03 0. -1.
        -11    1    3    3    0    0  0.27958451071E+01 -0.45028247913E+01  0.82789213601E+01  0.98301943070E+01  0.51100000000E-03 0.  1.
         12    1    3    3    0    0  0.43381385694E+01 -0.27674396847E+00 -0.22649044875E+01  0.49016146125E+01  0.00000000000E+00 0. -1.
</event>
<event>
 7    1  0.9175399E-010  0.4778727E+02  0.7816164E-02  0.1312668E+00
        -11   -1    0    0    0    0  0.00000000000E+00  0.00000000000E+00  0.45593999997E+02  0.45594000000E+02  0.51100000000E-03 0. -1.
         11   -1    0    0    0    0 -0.00000000000E+00 -0.00000000000E+00 -0.45593999997E+02  0.45594000000E+02  0.51100000000E-03 0.  1.
    9900012    2    1    2    0    0  0.18294533579E+02 -0.20447176900E+02 -0.33628060211E+02  0.47787269181E+02  0.19999991503E+02 0.  0.
         12    1    1    2    0    0 -0.18294533579E+02  0.20447176900E+02  0.33628060211E+02  0.43400730819E+02  0.00000000000E+00 0. -1.
         11    1    3    3    0    0  0.14626857227E+01  0.12036651011E+01 -0.12451036072E+02  0.12594306599E+02  0.51100000000E-03 0. -1.
        -11    1    3    3    0    0  0.14043926636E+02 -0.13463071553E+02 -0.14939501542E+02  0.24529061898E+02  0.51100000000E-03 0.  1.
         12    1    3    3    0    0  0.27879212208E+01 -0.81877704477E+01 -0.62375225971E+01  0.10663900683E+02  0.00000000000E+00 0. -1.
</event>
<event>
 7    1  0.9175399E-010  0.4778727E+02  0.7816164E-02  0.1312668E+00
        -11   -1    0    0    0    0  0.00000000000E+00  0.00000000000E+00  0.45593999997E+02  0.45594000000E+02  0.51100000000E-03 0. -1.
         11   -1    0    0    0    0 -0.00000000000E+00 -0.00000000000E+00 -0.45593999997E+02  0.45594000000E+02  0.51100000000E-03 0.  1.
    9900012    2    1    2    0    0  0.74618693449E+00  0.10842584605E+02 -0.42017911166E+02  0.47787270805E+02  0.19999998911E+02 0.  0.
         12    1    1    2    0    0 -0.74618693449E+00 -0.10842584605E+02  0.42017911166E+02  0.43400729195E+02  0.00000000000E+00 0. -1.
         11    1    3    3    0    0  0.19193323615E+01 -0.63442592724E+00 -0.39005805026E+00  0.20587565458E+01  0.51100000000E-03 0. -1.
        -11    1    3    3    0    0  0.42812035330E+01  0.11160761474E+01 -0.25019562026E+02  0.25407731381E+02  0.51100000000E-03 0.  1.
        -12    1    3    3    0    0 -0.54543489600E+01  0.10360934385E+02 -0.16608291089E+02  0.20320782879E+02  0.00000000000E+00 0.  1.
</event>
<event>
 7    1  0.9574758E-010  0.4778727E+02  0.7816164E-02  0.1312668E+00
        -11   -1    0    0    0    0  0.00000000000E+00  0.00000000000E+00  0.45593999997E+02  0.45594000000E+02  0.51100000000E-03 0. -1.
         11   -1    0    0    0    0 -0.00000000000E+00 -0.00000000000E+00 -0.45593999997E+02  0.45594000000E+02  0.51100000000E-03 0.  1.
    9900012    2    1    2    0    0 -0.22189605397E+02  0.26681714146E+02 -0.26063972571E+02  0.47787272775E+02  0.20000007890E+02 0.  0.
         12    1    1    2    0    0  0.22189605397E+02 -0.26681714146E+02  0.26063972571E+02  0.43400727225E+02  0.00000000000E+00 0. -1.
         11    1    3    3    0    0  0.16168343188E+00 -0.34782168975E+00  0.22769441957E+01  0.23090250305E+01  0.51100000000E-03 0. -1.
        -11    1    3    3    0    0 -0.13417729252E+02  0.15457805612E+02 -0.20141438701E+02  0.28716837671E+02  0.51100000000E-03 0.  1.
         12    1    3    3    0    0 -0.89335595769E+01  0.11571730224E+02 -0.81994780661E+01  0.16761410074E+02  0.00000000000E+00 0. -1.
</event>
<event>
 7    1  0.9175399E-010  0.4778727E+02  0.7816164E-02  0.1312668E+00
        -11   -1    0    0    0    0  0.00000000000E+00  0.00000000000E+00  0.45593999997E+02  0.45594000000E+02  0.51100000000E-03 0. -1.
         11   -1    0    0    0    0 -0.00000000000E+00 -0.00000000000E+00 -0.45593999997E+02  0.45594000000E+02  0.51100000000E-03 0.  1.
    9900012    2    1    2    0    0  0.17994826598E+02  0.33457132287E+02  0.20986414834E+02  0.47787273132E+02  0.20000009516E+02 0.  0.
        -12    1    1    2    0    0 -0.17994826598E+02 -0.33457132287E+02 -0.20986414834E+02  0.43400726868E+02  0.00000000000E+00 0.  1.
         11    1    3    3    0    0  0.33013546538E+01  0.50088343058E+01  0.59322696999E+00  0.60282072088E+01  0.51100000000E-03 0. -1.
        -11    1    3    3    0    0 -0.34496317535E+01  0.39302491107E+01  0.30712407449E+00  0.52384294178E+01  0.51100000000E-03 0.  1.
        -12    1    3    3    0    0  0.18143103698E+02  0.24518048870E+02  0.20086063789E+02  0.36520636505E+02  0.00000000000E+00 0.  1.
</event>
<event>
 7    1  0.9175399E-010  0.4778728E+02  0.7816164E-02  0.1312668E+00
        -11   -1    0    0    0    0  0.00000000000E+00  0.00000000000E+00  0.45593999997E+02  0.45594000000E+02  0.51100000000E-03 0. -1.
         11   -1    0    0    0    0 -0.00000000000E+00 -0.00000000000E+00 -0.45593999997E+02  0.45594000000E+02  0.51100000000E-03 0.  1.
    9900012    2    1    2    0    0  0.18899656463E+02  0.12608490724E+02 -0.36979070516E+02  0.47787277552E+02  0.20000029671E+02 0.  0.
         12    1    1    2    0    0 -0.18899656463E+02 -0.12608490724E+02  0.36979070516E+02  0.43400722448E+02  0.00000000000E+00 0. -1.
         11    1    3    3    0    0  0.36724358887E+01  0.79357429682E+01 -0.18182202456E+01  0.89313339954E+01  0.51100000000E-03 0. -1.
        -11    1    3    3    0    0  0.11723171773E+02  0.48583084931E+01 -0.30394649195E+02  0.32937374178E+02  0.51100000000E-03 0.  1.
         12    1    3    3    0    0  0.35040488020E+01 -0.18556073738E+00 -0.47662010759E+01  0.59185693787E+01  0.00000000000E+00 0. -1.
</event>
<event>
 7    1  0.9175399E-010  0.4778727E+02  0.7816164E-02  0.1312668E+00
        -11   -1    0    0    0    0  0.00000000000E+00  0.00000000000E+00  0.45593999997E+02  0.45594000000E+02  0.51100000000E-03 0. -1.
         11   -1    0    0    0    0 -0.00000000000E+00 -0.00000000000E+00 -0.45593999997E+02  0.45594000000E+02  0.51100000000E-03 0.  1.
    9900012    2    1    2    0    0  0.15265603698E+02  0.15632334003E+02 -0.37499531032E+02  0.47787270164E+02  0.19999995987E+02 0.  0.
         12    1    1    2    0    0 -0.15265603698E+02 -0.15632334003E+02  0.37499531032E+02  0.43400729836E+02  0.00000000000E+00 0. -1.
         11    1    3    3    0    0  0.14538134904E+02  0.78663060615E+01 -0.16409497288E+02  0.23291795530E+02  0.51100000000E-03 0. -1.
        -11    1    3    3    0    0 -0.26727919424E+01  0.84195908438E+01 -0.13247700664E+02  0.15922779276E+02  0.51100000000E-03 0.  1.
        -12    1    3    3    0    0  0.34002607368E+01 -0.65356290219E+00 -0.78423330808E+01  0.85726953576E+01  0.00000000000E+00 0.  1.
</event>
<event>
 7    1  0.9175399E-010  0.4778727E+02  0.7816164E-02  0.1312668E+00
        -11   -1    0    0    0    0  0.00000000000E+00  0.00000000000E+00  0.45593999997E+02  0.45594000000E+02  0.51100000000E-03 0. -1.
         11   -1    0    0    0    0 -0.00000000000E+00 -0.00000000000E+00 -0.45593999997E+02  0.45594000000E+02  0.51100000000E-03 0.  1.
    9900012    2    1    2    0    0  0.13515706440E+02 -0.26473654508E+02  0.31624268592E+02  0.47787273422E+02  0.20000010838E+02 0.  0.
        -12    1    1    2    0    0 -0.13515706440E+02  0.26473654508E+02 -0.31624268592E+02  0.43400726578E+02  0.00000000000E+00 0.  1.
         11    1    3    3    0    0  0.26939409429E+01 -0.20771813474E+02  0.13990257407E+02  0.25188347611E+02  0.51100000000E-03 0. -1.
        -11    1    3    3    0    0  0.96898683588E+01 -0.45847559792E+01  0.95397750620E+01  0.14349942324E+02  0.51100000000E-03 0.  1.
         12    1    3    3    0    0  0.11318971380E+01 -0.11170850546E+01  0.80942361230E+01  0.82489834868E+01  0.00000000000E+00 0. -1.
</event>
<event>
 7    1  0.9175399E-010  0.4778727E+02  0.7816164E-02  0.1312668E+00
        -11   -1    0    0    0    0  0.00000000000E+00  0.00000000000E+00  0.45593999997E+02  0.45594000000E+02  0.51100000000E-03 0. -1.
         11   -1    0    0    0    0 -0.00000000000E+00 -0.00000000000E+00 -0.45593999997E+02  0.45594000000E+02  0.51100000000E-03 0.  1.
    9900012    2    1    2    0    0 -0.23228420250E+02 -0.41111734529E+01  0.36430237126E+02  0.47787269228E+02  0.19999991718E+02 0.  0.
        -12    1    1    2    0    0  0.23228420250E+02  0.41111734529E+01 -0.36430237126E+02  0.43400730772E+02  0.00000000000E+00 0.  1.
         11    1    3    3    0    0 -0.85165627764E+01 -0.73437442267E+00  0.19551265067E+01  0.87689034226E+01  0.51100000000E-03 0.  1.
        -11    1    3    3    0    0 -0.15390384985E+02 -0.45353535749E+01  0.26871600379E+02  0.31297224945E+02  0.51100000000E-03 0. -1.
         12    1    3    3    0    0  0.67852751122E+00  0.11585545447E+01  0.76035102400E+01  0.77211408605E+01  0.00000000000E+00 0. -1.
</event>
<event>
 7    1  0.9175399E-010  0.4778727E+02  0.7816164E-02  0.1312668E+00
        -11   -1    0    0    0    0  0.00000000000E+00  0.00000000000E+00  0.45593999997E+02  0.45594000000E+02  0.51100000000E-03 0. -1.
         11   -1    0    0    0    0 -0.00000000000E+00 -0.00000000000E+00 -0.45593999997E+02  0.45594000000E+02  0.51100000000E-03 0.  1.
    9900012    2    1    2    0    0  0.48497223050E+01 -0.30145960205E+02 -0.30843552173E+02  0.47787269202E+02  0.19999991602E+02 0.  0.
         12    1    1    2    0    0 -0.48497223050E+01  0.30145960205E+02  0.30843552173E+02  0.43400730798E+02  0.00000000000E+00 0. -1.
         11    1    3    3    0    0  0.10357423124E+01 -0.18893225531E+02 -0.93492833883E+01  0.21105350820E+02  0.51100000000E-03 0. -1.
        -11    1    3    3    0    0  0.72062499752E+01 -0.96313629943E+01 -0.15786529323E+02  0.19847108106E+02  0.51100000000E-03 0.  1.
        -12    1    3    3    0    0 -0.33922699826E+01 -0.16213716799E+01 -0.57077394610E+01  0.68348102763E+01  0.00000000000E+00 0.  1.
</event>
<event>
 7    1  0.9175399E-010  0.4778727E+02  0.7816164E-02  0.1312668E+00
        -11   -1    0    0    0    0  0.00000000000E+00  0.00000000000E+00  0.45593999997E+02  0.45594000000E+02  0.51100000000E-03 0. -1.
         11   -1    0    0    0    0 -0.00000000000E+00 -0.00000000000E+00 -0.45593999997E+02  0.45594000000E+02  0.51100000000E-03 0.  1.
    9900012    2    1    2    0    0 -0.22874970466E+02  0.11672096203E+02  0.34987444134E+02  0.47787270160E+02  0.19999995969E+02 0.  0.
        -12    1    1    2    0    0  0.22874970466E+02 -0.11672096203E+02 -0.34987444134E+02  0.43400729840E+02  0.00000000000E+00 0.  1.
         11    1    3    3    0    0 -0.17574692956E+02  0.61909648956E+01  0.21704075764E+02  0.28605327893E+02  0.51100000000E-03 0. -1.
        -11    1    3    3    0    0  0.17802064868E+01 -0.14310367019E+01  0.72299211804E+01  0.75821343772E+01  0.51100000000E-03 0.  1.
         12    1    3    3    0    0 -0.70804839972E+01  0.69121680089E+01  0.60534471894E+01  0.11599807890E+02  0.00000000000E+00 0. -1.
</event>
<event>
 7    1  0.9175399E-010  0.4778727E+02  0.7816164E-02  0.1312668E+00
        -11   -1    0    0    0    0  0.00000000000E+00  0.00000000000E+00  0.45593999997E+02  0.45594000000E+02  0.51100000000E-03 0.  1.
         11   -1    0    0    0    0 -0.00000000000E+00 -0.00000000000E+00 -0.45593999997E+02  0.45594000000E+02  0.51100000000E-03 0. -1.
    9900012    2    1    2    0    0 -0.35674989880E+02 -0.24330335466E+02 -0.43535711282E+01  0.47787266039E+02  0.19999977177E+02 0.  0.
         12    1    1    2    0    0  0.35674989880E+02  0.24330335466E+02  0.43535711282E+01  0.43400733961E+02  0.00000000000E+00 0. -1.
         11    1    3    3    0    0 -0.42237643427E+01 -0.51872312010E+00  0.52420837344E+01  0.67519405386E+01  0.51100000000E-03 0. -1.
        -11    1    3    3    0    0 -0.24843577831E+02 -0.16161973005E+02 -0.86940765453E+01  0.30886885536E+02  0.51100000000E-03 0.  1.
        -12    1    3    3    0    0 -0.66076477061E+01 -0.76496393406E+01 -0.90157831727E+00  0.10148439964E+02  0.00000000000E+00 0.  1.
</event>
<event>
 7    1  0.9175399E-010  0.4778727E+02  0.7816164E-02  0.1312668E+00
        -11   -1    0    0    0    0  0.00000000000E+00  0.00000000000E+00  0.45593999997E+02  0.45594000000E+02  0.51100000000E-03 0. -1.
         11   -1    0    0    0    0 -0.00000000000E+00 -0.00000000000E+00 -0.45593999997E+02  0.45594000000E+02  0.51100000000E-03 0.  1.
    9900012    2    1    2    0    0  0.20568863039E+02 -0.12978228859E+02 -0.35945941397E+02  0.47787271274E+02  0.20000001049E+02 0.  0.
         12    1    1    2    0    0 -0.20568863039E+02  0.12978228859E+02  0.35945941397E+02  0.43400728726E+02  0.00000000000E+00 0. -1.
         11    1    3    3    0    0 -0.22176412911E+01 -0.28864483806E+00 -0.96723604960E+01  0.99275277166E+01  0.51100000000E-03 0. -1.
        -11    1    3    3    0    0  0.16887230790E+02 -0.12112818257E+02 -0.23322289445E+02  0.31238247631E+02  0.51100000000E-03 0.  1.
        -12    1    3    3    0    0  0.58992735402E+01 -0.57676576377E+00 -0.29512914562E+01  0.66214959267E+01  0.00000000000E+00 0.  1.
</event>
<event>
 7    1  0.9175399E-010  0.4778727E+02  0.7816164E-02  0.1312668E+00
        -11   -1    0    0    0    0  0.00000000000E+00  0.00000000000E+00  0.45593999997E+02  0.45594000000E+02  0.51100000000E-03 0. -1.
         11   -1    0    0    0    0 -0.00000000000E+00 -0.00000000000E+00 -0.45593999997E+02  0.45594000000E+02  0.51100000000E-03 0.  1.
    9900012    2    1    2    0    0 -0.53348309941E+01  0.21252060406E+02  0.37463488616E+02  0.47787268756E+02  0.19999989565E+02 0.  0.
        -12    1    1    2    0    0  0.53348309941E+01 -0.21252060406E+02 -0.37463488616E+02  0.43400731244E+02  0.00000000000E+00 0.  1.
         11    1    3    3    0    0 -0.50760201547E+00  0.18162440236E+01  0.27354660725E+01  0.33225257041E+01  0.51100000000E-03 0. -1.
        -11    1    3    3    0    0  0.28350317950E+01  0.10709412973E+02  0.29903298735E+02  0.31889437232E+02  0.51100000000E-03 0.  1.
        -12    1    3    3    0    0 -0.76622607737E+01  0.87264034089E+01  0.48247238092E+01  0.12575305819E+02  0.00000000000E+00 0.  1.
</event>
<event>
 7    1  0.9175399E-010  0.4778727E+02  0.7816164E-02  0.1312668E+00
        -11   -1    0    0    0    0  0.00000000000E+00  0.00000000000E+00  0.45593999997E+02  0.45594000000E+02  0.51100000000E-03 0. -1.
         11   -1    0    0    0    0 -0.00000000000E+00 -0.00000000000E+00 -0.45593999997E+02  0.45594000000E+02  0.51100000000E-03 0.  1.
    9900012    2    1    2    0    0  0.14663633787E+02 -0.27958971680E+02 -0.29780822976E+02  0.47787266476E+02  0.19999979172E+02 0.  0.
         12    1    1    2    0    0 -0.14663633787E+02  0.27958971680E+02  0.29780822976E+02  0.43400733524E+02  0.00000000000E+00 0. -1.
         11    1    3    3    0    0  0.48039041961E+01 -0.11415929675E+02 -0.21417816243E+02  0.24741135761E+02  0.51100000000E-03 0. -1.
        -11    1    3    3    0    0  0.38859491802E+00 -0.49221602165E+01 -0.61583992700E+01  0.78933230668E+01  0.51100000000E-03 0.  1.
         12    1    3    3    0    0  0.94711346733E+01 -0.11620881789E+02 -0.22046074623E+01  0.15152807648E+02  0.00000000000E+00 0. -1.
</event>
<event>
 7    1  0.9532736E-010  0.4778727E+02  0.7816164E-02  0.1312668E+00
        -11   -1    0    0    0    0  0.00000000000E+00  0.00000000000E+00  0.45593999997E+02  0.45594000000E+02  0.51100000000E-03 0. -1.
         11   -1    0    0    0    0 -0.00000000000E+00 -0.00000000000E+00 -0.45593999997E+02  0.45594000000E+02  0.51100000000E-03 0.  1.
    9900012    2    1    2    0    0 -0.18969855992E+02 -0.13530148514E+02 -0.36615616819E+02  0.47787265557E+02  0.19999974979E+02 0.  0.
         12    1    1    2    0    0  0.18969855992E+02  0.13530148514E+02  0.36615616819E+02  0.43400734443E+02  0.00000000000E+00 0. -1.
         11    1    3    3    0    0  0.36669147151E+01 -0.30095012238E+01 -0.24749523799E+01  0.53505841446E+01  0.51100000000E-03 0. -1.
        -11    1    3    3    0    0 -0.16428865070E+02 -0.64281435286E+01 -0.25898226680E+02  0.31336030095E+02  0.51100000000E-03 0.  1.
         12    1    3    3    0    0 -0.62079056374E+01 -0.40925037620E+01 -0.82424377592E+01  0.11100651317E+02  0.00000000000E+00 0. -1.
</event>
<event>
 7    1  0.9175399E-010  0.4778726E+02  0.7816164E-02  0.1312668E+00
        -11   -1    0    0    0    0  0.00000000000E+00  0.00000000000E+00  0.45593999997E+02  0.45594000000E+02  0.51100000000E-03 0. -1.
         11   -1    0    0    0    0 -0.00000000000E+00 -0.00000000000E+00 -0.45593999997E+02  0.45594000000E+02  0.51100000000E-03 0.  1.
    9900012    2    1    2    0    0  0.15646257953E+02  0.34338944463E+02  0.21439573408E+02  0.47787264953E+02  0.19999972225E+02 0.  0.
        -12    1    1    2    0    0 -0.15646257953E+02 -0.34338944463E+02 -0.21439573408E+02  0.43400735047E+02  0.00000000000E+00 0.  1.
         11    1    3    3    0    0  0.11135492126E+01  0.59644229664E+01  0.58547787231E+01  0.84316527045E+01  0.51100000000E-03 0. -1.
        -11    1    3    3    0    0 -0.22410293007E+01  0.77876417578E+01  0.87682401686E+01  0.11939497996E+02  0.51100000000E-03 0.  1.
        -12    1    3    3    0    0  0.16773738041E+02  0.20586879738E+02  0.68165545160E+01  0.27416114252E+02  0.00000000000E+00 0.  1.
</event>
<event>
 7    1  0.9175399E-010  0.4778727E+02  0.7816164E-02  0.1312668E+00
        -11   -1    0    0    0    0  0.00000000000E+00  0.00000000000E+00  0.45593999997E+02  0.45594000000E+02  0.51100000000E-03 0. -1.
         11   -1    0    0    0    0 -0.00000000000E+00 -0.00000000000E+00 -0.45593999997E+02  0.45594000000E+02  0.51100000000E-03 0.  1.
    9900012    2    1    2    0    0  0.17955592033E+02  0.16246364480E+02  0.36017713465E+02  0.47787270429E+02  0.19999997192E+02 0.  0.
        -12    1    1    2    0    0 -0.17955592033E+02 -0.16246364480E+02 -0.36017713465E+02  0.43400729571E+02  0.00000000000E+00 0.  1.
         11    1    3    3    0    0  0.10862865494E+01  0.35023575907E+01  0.88074032528E+01  0.95402766983E+01  0.51100000000E-03 0. -1.
        -11    1    3    3    0    0  0.17193248783E+01  0.10179643170E+02  0.56414209355E+01  0.11764643792E+02  0.51100000000E-03 0.  1.
        -12    1    3    3    0    0  0.15149980605E+02  0.25643637187E+01  0.21568889277E+02  0.26482349939E+02  0.00000000000E+00 0.  1.
</event>
<event>
 7    1  0.9175399E-010  0.4778727E+02  0.7816164E-02  0.1312668E+00
        -11   -1    0    0    0    0  0.00000000000E+00  0.00000000000E+00  0.45593999997E+02  0.45594000000E+02  0.51100000000E-03 0. -1.
         11   -1    0    0    0    0 -0.00000000000E+00 -0.00000000000E+00 -0.45593999997E+02  0.45594000000E+02  0.51100000000E-03 0.  1.
    9900012    2    1    2    0    0 -0.53532995688E+01  0.37460078911E+02  0.21253422018E+02  0.47787271022E+02  0.19999999899E+02 0.  0.
        -12    1    1    2    0    0  0.53532995688E+01 -0.37460078911E+02 -0.21253422018E+02  0.43400728978E+02  0.00000000000E+00 0.  1.
         11    1    3    3    0    0 -0.59760793175E+01  0.12132940231E+02  0.89360672988E+01  0.16210338111E+02  0.51100000000E-03 0. -1.
        -11    1    3    3    0    0  0.53010117297E+01  0.18701401294E+02  0.13081594015E+02  0.23430135252E+02  0.51100000000E-03 0.  1.
        -12    1    3    3    0    0 -0.46782319811E+01  0.66257373873E+01 -0.76423929622E+00  0.81467976590E+01  0.00000000000E+00 0.  1.
</event>
<event>
 7    1  0.9175399E-010  0.4778727E+02  0.7816164E-02  0.1312668E+00
        -11   -1    0    0    0    0  0.00000000000E+00  0.00000000000E+00  0.45593999997E+02  0.45594000000E+02  0.51100000000E-03 0. -1.
         11   -1    0    0    0    0 -0.00000000000E+00 -0.00000000000E+00 -0.45593999997E+02  0.45594000000E+02  0.51100000000E-03 0.  1.
    9900012    2    1    2    0    0 -0.15312296465E+02 -0.32541815417E+02  0.24293762742E+02  0.47787273257E+02  0.20000010088E+02 0.  0.
        -12    1    1    2    0    0  0.15312296465E+02  0.32541815417E+02 -0.24293762742E+02  0.43400726743E+02  0.00000000000E+00 0.  1.
         11    1    3    3    0    0  0.61475439093E-01 -0.27839208092E+01  0.11112482136E+02  0.11456057515E+02  0.51100000000E-03 0. -1.
        -11    1    3    3    0    0  0.20853932748E+00  0.21251929607E-01  0.23364787635E+00  0.31389789241E+00  0.51100000000E-03 0.  1.
         12    1    3    3    0    0 -0.15582311232E+02 -0.29779146537E+02  0.12947632730E+02  0.36017317850E+02  0.00000000000E+00 0. -1.
</event>
<event>
 7    1  0.9175399E-010  0.4778727E+02  0.7816164E-02  0.1312668E+00
        -11   -1    0    0    0    0  0.00000000000E+00  0.00000000000E+00  0.45593999997E+02  0.45594000000E+02  0.51100000000E-03 0. -1.
         11   -1    0    0    0    0 -0.00000000000E+00 -0.00000000000E+00 -0.45593999997E+02  0.45594000000E+02  0.51100000000E-03 0.  1.
    9900012    2    1    2    0    0 -0.12807796938E+02  0.12995156663E+02 -0.39379050456E+02  0.47787269892E+02  0.19999994745E+02 0.  0.
         12    1    1    2    0    0  0.12807796938E+02 -0.12995156663E+02  0.39379050456E+02  0.43400730108E+02  0.00000000000E+00 0. -1.
         11    1    3    3    0    0 -0.14251729121E+02  0.35235783378E+01 -0.30373983520E+02  0.33735830542E+02  0.51100000000E-03 0. -1.
        -11    1    3    3    0    0  0.17180265014E+01  0.97756171721E+01 -0.92557649357E+01  0.13571421847E+02  0.51100000000E-03 0.  1.
         12    1    3    3    0    0 -0.27409431790E+00 -0.30403884730E+00  0.25069799918E+00  0.48001750236E+00  0.00000000000E+00 0. -1.
</event>
<event>
 7    1  0.9175399E-010  0.4778727E+02  0.7816164E-02  0.1312668E+00
        -11   -1    0    0    0    0  0.00000000000E+00  0.00000000000E+00  0.45593999997E+02  0.45594000000E+02  0.51100000000E-03 0. -1.
         11   -1    0    0    0    0 -0.00000000000E+00 -0.00000000000E+00 -0.45593999997E+02  0.45594000000E+02  0.51100000000E-03 0.  1.
    9900012    2    1    2    0    0 -0.30494148459E+02 -0.13691776814E+02 -0.27681500428E+02  0.47787270645E+02  0.19999998180E+02 0.  0.
         12    1    1    2    0    0  0.30494148459E+02  0.13691776814E+02  0.27681500428E+02  0.43400729355E+02  0.00000000000E+00 0. -1.
         11    1    3    3    0    0 -0.85634401363E+01  0.37175787455E+01 -0.12885957491E+02  0.15912284544E+02  0.51100000000E-03 0. -1.
        -11    1    3    3    0    0 -0.21220778004E+02 -0.15754147663E+02 -0.13744288340E+02  0.29789596337E+02  0.51100000000E-03 0.  1.
         12    1    3    3    0    0 -0.70993031868E+00 -0.16552078969E+01 -0.10512545973E+01  0.20853897640E+01  0.00000000000E+00 0. -1.
</event>
<event>
 7    1  0.9175399E-010  0.4778727E+02  0.7816164E-02  0.1312668E+00
        -11   -1    0    0    0    0  0.00000000000E+00  0.00000000000E+00  0.45593999997E+02  0.45594000000E+02  0.51100000000E-03 0. -1.
         11   -1    0    0    0    0 -0.00000000000E+00 -0.00000000000E+00 -0.45593999997E+02  0.45594000000E+02  0.51100000000E-03 0.  1.
    9900012    2    1    2    0    0  0.12007437904E+01 -0.34999631484E+02 -0.25636050835E+02  0.47787273138E+02  0.20000009547E+02 0.  0.
         12    1    1    2    0    0 -0.12007437904E+01  0.34999631484E+02  0.25636050835E+02  0.43400726862E+02  0.00000000000E+00 0. -1.
         11    1    3    3    0    0  0.20719297892E+01 -0.23753150905E+02 -0.59898332289E+01  0.24584205770E+02  0.51100000000E-03 0.  1.
        -11    1    3    3    0    0 -0.14383545662E+01 -0.18206306494E+01 -0.72987160838E+01  0.76586432580E+01  0.51100000000E-03 0. -1.
        -12    1    3    3    0    0  0.56716856748E+00 -0.94258499302E+01 -0.12347501522E+02  0.15544424111E+02  0.00000000000E+00 0.  1.
</event>
<event>
 7    1  0.9175399E-010  0.4778727E+02  0.7816164E-02  0.1312668E+00
        -11   -1    0    0    0    0  0.00000000000E+00  0.00000000000E+00  0.45593999997E+02  0.45594000000E+02  0.51100000000E-03 0.  1.
         11   -1    0    0    0    0 -0.00000000000E+00 -0.00000000000E+00 -0.45593999997E+02  0.45594000000E+02  0.51100000000E-03 0. -1.
    9900012    2    1    2    0    0 -0.16992639614E+02  0.36945483663E+02  0.15162615648E+02  0.47787268700E+02  0.19999989309E+02 0.  0.
        -12    1    1    2    0    0  0.16992639614E+02 -0.36945483663E+02 -0.15162615648E+02  0.43400731300E+02  0.00000000000E+00 0.  1.
         11    1    3    3    0    0 -0.14453104105E+02  0.23580116489E+02  0.99860417580E+01  0.29404678916E+02  0.51100000000E-03 0. -1.
        -11    1    3    3    0    0 -0.90598639599E-02  0.38728142849E+01  0.73618871000E+01  0.83184225969E+01  0.51100000000E-03 0.  1.
         12    1    3    3    0    0 -0.25304756460E+01  0.94925528884E+01 -0.21853132103E+01  0.10064167187E+02  0.00000000000E+00 0. -1.
</event>
<event>
 7    1  0.9175399E-010  0.4778726E+02  0.7816164E-02  0.1312668E+00
        -11   -1    0    0    0    0  0.00000000000E+00  0.00000000000E+00  0.45593999997E+02  0.45594000000E+02  0.51100000000E-03 0. -1.
         11   -1    0    0    0    0 -0.00000000000E+00 -0.00000000000E+00 -0.45593999997E+02  0.45594000000E+02  0.51100000000E-03 0.  1.
    9900012    2    1    2    0    0  0.91590218261E+01  0.28365936415E+02  0.31545361396E+02  0.47787264348E+02  0.19999969470E+02 0.  0.
        -12    1    1    2    0    0 -0.91590218261E+01 -0.28365936415E+02 -0.31545361396E+02  0.43400735652E+02  0.00000000000E+00 0.  1.
         11    1    3    3    0    0  0.52618732406E+01  0.23602540625E+02  0.31079031104E+02  0.39378590739E+02  0.51100000000E-03 0. -1.
        -11    1    3    3    0    0  0.79942002909E+00  0.43883426374E+01 -0.15168672345E+01  0.47114233470E+01  0.51100000000E-03 0.  1.
         12    1    3    3    0    0  0.30977285563E+01  0.37505315253E+00  0.19831975260E+01  0.36972502624E+01  0.00000000000E+00 0. -1.
</event>
<event>
 7    1  0.9175399E-010  0.4778727E+02  0.7816164E-02  0.1312668E+00
        -11   -1    0    0    0    0  0.00000000000E+00  0.00000000000E+00  0.45593999997E+02  0.45594000000E+02  0.51100000000E-03 0. -1.
         11   -1    0    0    0    0 -0.00000000000E+00 -0.00000000000E+00 -0.45593999997E+02  0.45594000000E+02  0.51100000000E-03 0.  1.
    9900012    2    1    2    0    0 -0.37562687403E+02 -0.19678973220E+02  0.92415389548E+01  0.47787268276E+02  0.19999987378E+02 0.  0.
        -12    1    1    2    0    0  0.37562687403E+02  0.19678973220E+02 -0.92415389548E+01  0.43400731724E+02  0.00000000000E+00 0.  1.
         11    1    3    3    0    0 -0.29750595354E+02 -0.95951154365E+01  0.11146919784E+02  0.33187617948E+02  0.51100000000E-03 0. -1.
        -11    1    3    3    0    0 -0.45340180502E+01 -0.23449961960E+01 -0.33026452155E+01  0.60797855652E+01  0.51100000000E-03 0.  1.
         12    1    3    3    0    0 -0.32780739988E+01 -0.77388615872E+01  0.13972643866E+01  0.85198647627E+01  0.00000000000E+00 0. -1.
</event>
<event>
 7    1  0.9175399E-010  0.4778727E+02  0.7816164E-02  0.1312668E+00
        -11   -1    0    0    0    0  0.00000000000E+00  0.00000000000E+00  0.45593999997E+02  0.45594000000E+02  0.51100000000E-03 0. -1.
         11   -1    0    0    0    0 -0.00000000000E+00 -0.00000000000E+00 -0.45593999997E+02  0.45594000000E+02  0.51100000000E-03 0.  1.
    9900012    2    1    2    0    0 -0.34105072725E+02  0.89378201355E+01 -0.25309738521E+02  0.47787268689E+02  0.19999989260E+02 0.  0.
         12    1    1    2    0    0  0.34105072725E+02 -0.89378201355E+01  0.25309738521E+02  0.43400731311E+02  0.00000000000E+00 0. -1.
         11    1    3    3    0    0 -0.63763720559E+01 -0.70910577436E+00 -0.12786961179E+02  0.14306198937E+02  0.51100000000E-03 0. -1.
        -11    1    3    3    0    0 -0.28372433004E+02  0.86028227306E+01 -0.12677544995E+02  0.32244746252E+02  0.51100000000E-03 0.  1.
        -12    1    3    3    0    0  0.64373233524E+00  0.10441031793E+01  0.15476765239E+00  0.12363234992E+01  0.00000000000E+00 0.  1.
</event>
<event>
 7    1  0.9175399E-010  0.4778727E+02  0.7816164E-02  0.1312668E+00
        -11   -1    0    0    0    0  0.00000000000E+00  0.00000000000E+00  0.45593999997E+02  0.45594000000E+02  0.51100000000E-03 0. -1.
         11   -1    0    0    0    0 -0.00000000000E+00 -0.00000000000E+00 -0.45593999997E+02  0.45594000000E+02  0.51100000000E-03 0.  1.
    9900012    2    1    2    0    0 -0.88288667658E+01 -0.15208620506E+02  0.39678361438E+02  0.47787269679E+02  0.19999993772E+02 0.  0.
        -12    1    1    2    0    0  0.88288667658E+01  0.15208620506E+02 -0.39678361438E+02  0.43400730321E+02  0.00000000000E+00 0.  1.
         11    1    3    3    0    0 -0.39884419202E+01 -0.12914310614E+02  0.20326864741E+02  0.24410418228E+02  0.51100000000E-03 0. -1.
        -11    1    3    3    0    0  0.12452611475E+01  0.22858342589E+01  0.13562245283E+02  0.13809786782E+02  0.51100000000E-03 0.  1.
         12    1    3    3    0    0 -0.60856859931E+01 -0.45801441505E+01  0.57892514134E+01  0.95670646687E+01  0.00000000000E+00 0. -1.
</event>
<event>
 7    1  0.9175399E-010  0.4778727E+02  0.7816164E-02  0.1312668E+00
        -11   -1    0    0    0    0  0.00000000000E+00  0.00000000000E+00  0.45593999997E+02  0.45594000000E+02  0.51100000000E-03 0. -1.
         11   -1    0    0    0    0 -0.00000000000E+00 -0.00000000000E+00 -0.45593999997E+02  0.45594000000E+02  0.51100000000E-03 0.  1.
    9900012    2    1    2    0    0 -0.27127366380E+02 -0.10063719169E+02 -0.32348890033E+02  0.47787272626E+02  0.20000007212E+02 0.  0.
         12    1    1    2    0    0  0.27127366380E+02  0.10063719169E+02  0.32348890033E+02  0.43400727374E+02  0.00000000000E+00 0. -1.
         11    1    3    3    0    0 -0.12915286706E+01 -0.12443702024E+01 -0.41308162272E+00  0.18404184839E+01  0.51100000000E-03 0. -1.
        -11    1    3    3    0    0 -0.12843950347E+02 -0.13976316866E+02 -0.19899629649E+02  0.27500904605E+02  0.51100000000E-03 0.  1.
        -12    1    3    3    0    0 -0.12991887363E+02  0.51569679001E+01 -0.12036178761E+02  0.18445949537E+02  0.00000000000E+00 0.  1.
</event>
<event>
 7    1  0.9175399E-010  0.4778727E+02  0.7816164E-02  0.1312668E+00
        -11   -1    0    0    0    0  0.00000000000E+00  0.00000000000E+00  0.45593999997E+02  0.45594000000E+02  0.51100000000E-03 0. -1.
         11   -1    0    0    0    0 -0.00000000000E+00 -0.00000000000E+00 -0.45593999997E+02  0.45594000000E+02  0.51100000000E-03 0.  1.
    9900012    2    1    2    0    0  0.20027492053E+02 -0.36971668028E+02 -0.10752601911E+02  0.47787272787E+02  0.20000007945E+02 0.  0.
         12    1    1    2    0    0 -0.20027492053E+02  0.36971668028E+02  0.10752601911E+02  0.43400727213E+02  0.00000000000E+00 0. -1.
         11    1    3    3    0    0  0.41852034341E+01 -0.14136700272E+02  0.30576740784E+01  0.15056945022E+02  0.51100000000E-03 0. -1.
        -11    1    3    3    0    0  0.43527702346E+01 -0.59372563885E+00 -0.36571737508E+01  0.57161209709E+01  0.51100000000E-03 0.  1.
        -12    1    3    3    0    0  0.11489518385E+02 -0.22241242117E+02 -0.10153102239E+02  0.27014206794E+02  0.00000000000E+00 0.  1.
</event>
<event>
 7    1  0.9175399E-010  0.4778727E+02  0.7816164E-02  0.1312668E+00
        -11   -1    0    0    0    0  0.00000000000E+00  0.00000000000E+00  0.45593999997E+02  0.45594000000E+02  0.51100000000E-03 0. -1.
         11   -1    0    0    0    0 -0.00000000000E+00 -0.00000000000E+00 -0.45593999997E+02  0.45594000000E+02  0.51100000000E-03 0.  1.
    9900012    2    1    2    0    0 -0.18283675385E+02  0.35613560583E+02  0.16763201185E+02  0.47787269626E+02  0.19999993535E+02 0.  0.
        -12    1    1    2    0    0  0.18283675385E+02 -0.35613560583E+02 -0.16763201185E+02  0.43400730374E+02  0.00000000000E+00 0.  1.
         11    1    3    3    0    0 -0.31958259438E+01  0.33594487312E+01 -0.29183955753E+01  0.54787071683E+01  0.51100000000E-03 0. -1.
        -11    1    3    3    0    0  0.11465510097E+01  0.89474548438E+01  0.40531594193E+01  0.98893694915E+01  0.51100000000E-03 0.  1.
         12    1    3    3    0    0 -0.16234400451E+02  0.23306657008E+02  0.15628437341E+02  0.32419192967E+02  0.00000000000E+00 0. -1.
</event>
<event>
 7    1  0.9175399E-010  0.4778727E+02  0.7816164E-02  0.1312668E+00
        -11   -1    0    0    0    0  0.00000000000E+00  0.00000000000E+00  0.45593999997E+02  0.45594000000E+02  0.51100000000E-03 0. -1.
         11   -1    0    0    0    0 -0.00000000000E+00 -0.00000000000E+00 -0.45593999997E+02  0.45594000000E+02  0.51100000000E-03 0.  1.
    9900012    2    1    2    0    0  0.21702349166E+02 -0.11421462771E+02  0.35807562488E+02  0.47787270715E+02  0.19999998498E+02 0.  0.
        -12    1    1    2    0    0 -0.21702349166E+02  0.11421462771E+02 -0.35807562488E+02  0.43400729285E+02  0.00000000000E+00 0.  1.
         11    1    3    3    0    0  0.22767808916E+02 -0.94443355455E+01  0.26983702679E+02  0.36547076590E+02  0.51100000000E-03 0. -1.
        -11    1    3    3    0    0 -0.20322124244E+01 -0.17675755366E+01  0.35836526533E+00  0.27171007600E+01  0.51100000000E-03 0.  1.
         12    1    3    3    0    0  0.96675267416E+00 -0.20955168877E+00  0.84654945433E+01  0.85230933649E+01  0.00000000000E+00 0. -1.
</event>
<event>
 7    1  0.9175399E-010  0.4778727E+02  0.7816164E-02  0.1312668E+00
        -11   -1    0    0    0    0  0.00000000000E+00  0.00000000000E+00  0.45593999997E+02  0.45594000000E+02  0.51100000000E-03 0. -1.
         11   -1    0    0    0    0 -0.00000000000E+00 -0.00000000000E+00 -0.45593999997E+02  0.45594000000E+02  0.51100000000E-03 0.  1.
    9900012    2    1    2    0    0 -0.97045103432E+01 -0.26048622476E+02  0.33330393584E+02  0.47787269703E+02  0.19999993882E+02 0.  0.
        -12    1    1    2    0    0  0.97045103432E+01  0.26048622476E+02 -0.33330393584E+02  0.43400730297E+02  0.00000000000E+00 0.  1.
         11    1    3    3    0    0 -0.85569885332E+01 -0.82897959351E+01  0.12384334676E+02  0.17184717485E+02  0.51100000000E-03 0. -1.
        -11    1    3    3    0    0  0.12425274053E+01 -0.11017716140E+02  0.20656912156E+02  0.23444444191E+02  0.51100000000E-03 0.  1.
        -12    1    3    3    0    0 -0.23900492153E+01 -0.67411104006E+01  0.28914675106E+00  0.71581080271E+01  0.00000000000E+00 0.  1.
</event>
<event>
 7    1  0.9175399E-010  0.4778732E+02  0.7816164E-02  0.1312668E+00
        -11   -1    0    0    0    0  0.00000000000E+00  0.00000000000E+00  0.45593999997E+02  0.45594000000E+02  0.51100000000E-03 0.  1.
         11   -1    0    0    0    0 -0.00000000000E+00 -0.00000000000E+00 -0.45593999997E+02  0.45594000000E+02  0.51100000000E-03 0. -1.
    9900012    2    1    2    0    0 -0.56876994944E+01  0.34436646665E+02  0.25795087989E+02  0.47787318859E+02  0.20000218007E+02 0.  0.
        -12    1    1    2    0    0  0.56876994944E+01 -0.34436646665E+02 -0.25795087989E+02  0.43400681141E+02  0.00000000000E+00 0.  1.
         11    1    3    3    0    0  0.11196087538E+01  0.25144465690E+02  0.12568569250E+02  0.28133016401E+02  0.51100000000E-03 0. -1.
        -11    1    3    3    0    0  0.16935458493E+00  0.71501576832E+01  0.76247622858E+01  0.10454206620E+02  0.51100000000E-03 0.  1.
         12    1    3    3    0    0 -0.69766628332E+01  0.21420232924E+01  0.56017564534E+01  0.92000958385E+01  0.00000000000E+00 0. -1.
</event>
<event>
 7    1  0.9175399E-010  0.4778726E+02  0.7816164E-02  0.1312668E+00
        -11   -1    0    0    0    0  0.00000000000E+00  0.00000000000E+00  0.45593999997E+02  0.45594000000E+02  0.51100000000E-03 0. -1.
         11   -1    0    0    0    0 -0.00000000000E+00 -0.00000000000E+00 -0.45593999997E+02  0.45594000000E+02  0.51100000000E-03 0.  1.
    9900012    2    1    2    0    0  0.24293257794E+01 -0.41234939005E+02  0.13319249874E+02  0.47787259964E+02  0.19999949479E+02 0.  0.
        -12    1    1    2    0    0 -0.24293257794E+01  0.41234939005E+02 -0.13319249874E+02  0.43400740036E+02  0.00000000000E+00 0.  1.
         11    1    3    3    0    0  0.32853185638E+01 -0.30704432601E+02  0.17512527399E+02  0.35499917121E+02  0.51100000000E-03 0. -1.
        -11    1    3    3    0    0  0.13361230621E+00 -0.73557234849E+01 -0.49624006506E+01  0.88741163342E+01  0.51100000000E-03 0.  1.
        -12    1    3    3    0    0 -0.98960509061E+00 -0.31747829192E+01  0.76912312547E+00  0.34132265090E+01  0.00000000000E+00 0.  1.
</event>
<event>
 7    1  0.9175399E-010  0.4778727E+02  0.7816164E-02  0.1312668E+00
        -11   -1    0    0    0    0  0.00000000000E+00  0.00000000000E+00  0.45593999997E+02  0.45594000000E+02  0.51100000000E-03 0. -1.
         11   -1    0    0    0    0 -0.00000000000E+00 -0.00000000000E+00 -0.45593999997E+02  0.45594000000E+02  0.51100000000E-03 0.  1.
    9900012    2    1    2    0    0 -0.12255426717E+02  0.72461693747E+01 -0.40999030475E+02  0.47787274723E+02  0.20000016774E+02 0.  0.
         12    1    1    2    0    0  0.12255426717E+02 -0.72461693747E+01  0.40999030475E+02  0.43400725277E+02  0.00000000000E+00 0. -1.
         11    1    3    3    0    0 -0.43327219360E+01  0.11548240350E+00 -0.41352004771E+01  0.59904673279E+01  0.51100000000E-03 0. -1.
        -11    1    3    3    0    0  0.10224888553E+01 -0.45002238776E+01 -0.12866791704E+02  0.13669375531E+02  0.51100000000E-03 0.  1.
        -12    1    3    3    0    0 -0.89451936361E+01  0.11630910849E+02 -0.23997038295E+02  0.28127431864E+02  0.00000000000E+00 0.  1.
</event>
<event>
 7    1  0.9175399E-010  0.4778726E+02  0.7816164E-02  0.1312668E+00
        -11   -1    0    0    0    0  0.00000000000E+00  0.00000000000E+00  0.45593999997E+02  0.45594000000E+02  0.51100000000E-03 0. -1.
         11   -1    0    0    0    0 -0.00000000000E+00 -0.00000000000E+00 -0.45593999997E+02  0.45594000000E+02  0.51100000000E-03 0.  1.
    9900012    2    1    2    0    0 -0.26936797687E+00 -0.36148022783E+02  0.24018153567E+02  0.47787264856E+02  0.19999971786E+02 0.  0.
        -12    1    1    2    0    0  0.26936797687E+00  0.36148022783E+02 -0.24018153567E+02  0.43400735144E+02  0.00000000000E+00 0.  1.
         11    1    3    3    0    0  0.53444866855E+01 -0.99748765967E+01  0.86691006223E+01  0.14255350115E+02  0.51100000000E-03 0. -1.
        -11    1    3    3    0    0 -0.51073070075E+01 -0.27688800612E+02  0.14975606612E+02  0.31890798954E+02  0.51100000000E-03 0.  1.
        -12    1    3    3    0    0 -0.50654765485E+00  0.15156544258E+01  0.37344633202E+00  0.16411157875E+01  0.00000000000E+00 0.  1.
</event>
<event>
 7    1  0.9175399E-010  0.4778727E+02  0.7816164E-02  0.1312668E+00
        -11   -1    0    0    0    0  0.00000000000E+00  0.00000000000E+00  0.45593999997E+02  0.45594000000E+02  0.51100000000E-03 0. -1.
         11   -1    0    0    0    0 -0.00000000000E+00 -0.00000000000E+00 -0.45593999997E+02  0.45594000000E+02  0.51100000000E-03 0.  1.
    9900012    2    1    2    0    0 -0.31604114757E+02  0.10941167180E+02  0.27660340338E+02  0.47787266867E+02  0.19999980955E+02 0.  0.
        -12    1    1    2    0    0  0.31604114757E+02 -0.10941167180E+02 -0.27660340338E+02  0.43400733133E+02  0.00000000000E+00 0.  1.
         11    1    3    3    0    0 -0.48973316964E+01  0.85940073168E+01  0.75442147580E+01  0.12440096305E+02  0.51100000000E-03 0. -1.
        -11    1    3    3    0    0 -0.13157398735E+02 -0.63908242937E+00  0.16299809911E+02  0.20957322615E+02  0.51100000000E-03 0.  1.
         12    1    3    3    0    0 -0.13549384326E+02  0.29862422926E+01  0.38163156688E+01  0.14389847947E+02  0.00000000000E+00 0. -1.
</event>
<event>
 7    1  0.9175399E-010  0.4778726E+02  0.7816164E-02  0.1312668E+00
        -11   -1    0    0    0    0  0.00000000000E+00  0.00000000000E+00  0.45593999997E+02  0.45594000000E+02  0.51100000000E-03 0. -1.
         11   -1    0    0    0    0 -0.00000000000E+00 -0.00000000000E+00 -0.45593999997E+02  0.45594000000E+02  0.51100000000E-03 0.  1.
    9900012    2    1    2    0    0 -0.11843193959E+02  0.31180060382E+02 -0.27769886235E+02  0.47787262794E+02  0.19999962382E+02 0.  0.
         12    1    1    2    0    0  0.11843193959E+02 -0.31180060382E+02  0.27769886235E+02  0.43400737206E+02  0.00000000000E+00 0. -1.
         11    1    3    3    0    0 -0.27058977092E+01  0.96653320259E+01  0.59500440735E+00  0.10054578862E+02  0.51100000000E-03 0. -1.
        -11    1    3    3    0    0 -0.90400426399E+01  0.10808360336E+02 -0.17658380112E+02  0.22591179972E+02  0.51100000000E-03 0.  1.
        -12    1    3    3    0    0 -0.97253609416E-01  0.10706368020E+02 -0.10706510530E+02  0.15141503960E+02  0.00000000000E+00 0.  1.
</event>
<event>
 7    1  0.9175399E-010  0.4778727E+02  0.7816164E-02  0.1312668E+00
        -11   -1    0    0    0    0  0.00000000000E+00  0.00000000000E+00  0.45593999997E+02  0.45594000000E+02  0.51100000000E-03 0. -1.
         11   -1    0    0    0    0 -0.00000000000E+00 -0.00000000000E+00 -0.45593999997E+02  0.45594000000E+02  0.51100000000E-03 0.  1.
    9900012    2    1    2    0    0  0.20644356504E+02  0.80351850714E+01  0.37321166452E+02  0.47787272818E+02  0.20000008085E+02 0.  0.
        -12    1    1    2    0    0 -0.20644356504E+02 -0.80351850714E+01 -0.37321166452E+02  0.43400727182E+02  0.00000000000E+00 0.  1.
         11    1    3    3    0    0  0.62976118274E+01  0.84042725478E+01  0.17296874567E+02  0.20235453586E+02  0.51100000000E-03 0. -1.
        -11    1    3    3    0    0  0.88820124222E+01 -0.62726402552E+01  0.11162244888E+02  0.15583063615E+02  0.51100000000E-03 0.  1.
        -12    1    3    3    0    0  0.54647322548E+01  0.59035527788E+01  0.88620469973E+01  0.11968755617E+02  0.00000000000E+00 0.  1.
</event>
<event>
 7    1  0.9175399E-010  0.4778727E+02  0.7816164E-02  0.1312668E+00
        -11   -1    0    0    0    0  0.00000000000E+00  0.00000000000E+00  0.45593999997E+02  0.45594000000E+02  0.51100000000E-03 0. -1.
         11   -1    0    0    0    0 -0.00000000000E+00 -0.00000000000E+00 -0.45593999997E+02  0.45594000000E+02  0.51100000000E-03 0.  1.
    9900012    2    1    2    0    0 -0.18917646658E+02  0.19683979755E+02  0.33738506352E+02  0.47787271608E+02  0.20000002571E+02 0.  0.
        -12    1    1    2    0    0  0.18917646658E+02 -0.19683979755E+02 -0.33738506352E+02  0.43400728392E+02  0.00000000000E+00 0.  1.
         11    1    3    3    0    0 -0.48041690655E+01  0.11241845013E+02  0.20397963312E+02  0.23781001393E+02  0.51100000000E-03 0. -1.
        -11    1    3    3    0    0 -0.13761587275E+02  0.54033384149E+01  0.58223321135E+01  0.15889521763E+02  0.51100000000E-03 0.  1.
        -12    1    3    3    0    0 -0.35189031798E+00  0.30387963268E+01  0.75182109264E+01  0.81167484528E+01  0.00000000000E+00 0.  1.
</event>
<event>
 7    1  0.9175399E-010  0.4778727E+02  0.7816164E-02  0.1312668E+00
        -11   -1    0    0    0    0  0.00000000000E+00  0.00000000000E+00  0.45593999997E+02  0.45594000000E+02  0.51100000000E-03 0. -1.
         11   -1    0    0    0    0 -0.00000000000E+00 -0.00000000000E+00 -0.45593999997E+02  0.45594000000E+02  0.51100000000E-03 0.  1.
    9900012    2    1    2    0    0  0.38697218928E+02  0.81405942718E+01 -0.17885171629E+02  0.47787269683E+02  0.19999993792E+02 0.  0.
         12    1    1    2    0    0 -0.38697218928E+02 -0.81405942718E+01  0.17885171629E+02  0.43400730317E+02  0.00000000000E+00 0. -1.
         11    1    3    3    0    0  0.13269284190E+02  0.12328745819E+02 -0.83311432669E+01  0.19936896067E+02  0.51100000000E-03 0. -1.
        -11    1    3    3    0    0  0.24071486548E+02 -0.31599413534E+01 -0.80466529184E+01  0.25576753458E+02  0.51100000000E-03 0.  1.
         12    1    3    3    0    0  0.13564481902E+01 -0.10282101941E+01 -0.15073754438E+01  0.22736201583E+01  0.00000000000E+00 0. -1.
</event>
<event>
 7    1  0.9175399E-010  0.4778727E+02  0.7816164E-02  0.1312668E+00
        -11   -1    0    0    0    0  0.00000000000E+00  0.00000000000E+00  0.45593999997E+02  0.45594000000E+02  0.51100000000E-03 0. -1.
         11   -1    0    0    0    0 -0.00000000000E+00 -0.00000000000E+00 -0.45593999997E+02  0.45594000000E+02  0.51100000000E-03 0.  1.
    9900012    2    1    2    0    0  0.20712454226E+02 -0.31523313992E+02  0.21468551370E+02  0.47787265179E+02  0.19999973257E+02 0.  0.
        -12    1    1    2    0    0 -0.20712454226E+02  0.31523313992E+02 -0.21468551370E+02  0.43400734821E+02  0.00000000000E+00 0.  1.
         11    1    3    3    0    0  0.23748725611E+02 -0.21175832643E+02  0.16024824140E+02  0.35626013603E+02  0.51100000000E-03 0. -1.
        -11    1    3    3    0    0 -0.26662347754E+01 -0.84594408749E+01  0.50180282898E+01  0.10190758361E+02  0.51100000000E-03 0.  1.
         12    1    3    3    0    0 -0.37003660933E+00 -0.18880404740E+01  0.42569894046E+00  0.19704932153E+01  0.00000000000E+00 0. -1.
</event>
<event>
 7    1  0.9175399E-010  0.4778727E+02  0.7816164E-02  0.1312668E+00
        -11   -1    0    0    0    0  0.00000000000E+00  0.00000000000E+00  0.45593999997E+02  0.45594000000E+02  0.51100000000E-03 0. -1.
         11   -1    0    0    0    0 -0.00000000000E+00 -0.00000000000E+00 -0.45593999997E+02  0.45594000000E+02  0.51100000000E-03 0.  1.
    9900012    2    1    2    0    0 -0.41158820723E+02 -0.13751159486E+02 -0.69295969126E+00  0.47787273005E+02  0.20000008940E+02 0.  0.
         12    1    1    2    0    0  0.41158820723E+02  0.13751159486E+02  0.69295969126E+00  0.43400726995E+02  0.00000000000E+00 0. -1.
         11    1    3    3    0    0 -0.19986332961E+02 -0.23968788884E+00 -0.78038211082E+01  0.21457180142E+02  0.51100000000E-03 0. -1.
        -11    1    3    3    0    0 -0.13154323782E+02 -0.63945560017E+01  0.38603699161E+01  0.15127096112E+02  0.51100000000E-03 0.  1.
         12    1    3    3    0    0 -0.80181639800E+01 -0.71169155954E+01  0.32504915009E+01  0.11202996751E+02  0.00000000000E+00 0. -1.
</event>
<event>
 7    1  0.9175399E-010  0.4778726E+02  0.7816164E-02  0.1312668E+00
        -11   -1    0    0    0    0  0.00000000000E+00  0.00000000000E+00  0.45593999997E+02  0.45594000000E+02  0.51100000000E-03 0. -1.
         11   -1    0    0    0    0 -0.00000000000E+00 -0.00000000000E+00 -0.45593999997E+02  0.45594000000E+02  0.51100000000E-03 0.  1.
    9900012    2    1    2    0    0 -0.22190574828E+02 -0.41568576921E+01 -0.37066467097E+02  0.47787261986E+02  0.19999958699E+02 0.  0.
         12    1    1    2    0    0  0.22190574828E+02  0.41568576921E+01  0.37066467097E+02  0.43400738014E+02  0.00000000000E+00 0. -1.
         11    1    3    3    0    0 -0.11112901792E+02 -0.89880038501E+01 -0.15958257640E+02  0.21423043356E+02  0.51100000000E-03 0. -1.
        -11    1    3    3    0    0 -0.28585894069E+01  0.52095468931E+01 -0.14948113196E+02  0.16085925544E+02  0.51100000000E-03 0.  1.
        -12    1    3    3    0    0 -0.82190836289E+01 -0.37840073513E+00 -0.61600962617E+01  0.10278293086E+02  0.00000000000E+00 0.  1.
</event>
<event>
 7    1  0.9175399E-010  0.4778727E+02  0.7816164E-02  0.1312668E+00
        -11   -1    0    0    0    0  0.00000000000E+00  0.00000000000E+00  0.45593999997E+02  0.45594000000E+02  0.51100000000E-03 0. -1.
         11   -1    0    0    0    0 -0.00000000000E+00 -0.00000000000E+00 -0.45593999997E+02  0.45594000000E+02  0.51100000000E-03 0.  1.
    9900012    2    1    2    0    0 -0.13506475373E+02  0.29672273081E+02 -0.28648813752E+02  0.47787271939E+02  0.20000004081E+02 0.  0.
         12    1    1    2    0    0  0.13506475373E+02 -0.29672273081E+02  0.28648813752E+02  0.43400728061E+02  0.00000000000E+00 0. -1.
         11    1    3    3    0    0 -0.71717694918E+01  0.95242766762E+00 -0.82709078821E+00  0.72818593463E+01  0.51100000000E-03 0. -1.
        -11    1    3    3    0    0 -0.37047518277E+01  0.14452518136E+02 -0.14665427256E+02  0.20920688886E+02  0.51100000000E-03 0.  1.
         12    1    3    3    0    0 -0.26299540538E+01  0.14267327277E+02 -0.13156295708E+02  0.19584723708E+02  0.00000000000E+00 0. -1.
</event>
<event>
 7    1  0.9175399E-010  0.4778727E+02  0.7816164E-02  0.1312668E+00
        -11   -1    0    0    0    0  0.00000000000E+00  0.00000000000E+00  0.45593999997E+02  0.45594000000E+02  0.51100000000E-03 0. -1.
         11   -1    0    0    0    0 -0.00000000000E+00 -0.00000000000E+00 -0.45593999997E+02  0.45594000000E+02  0.51100000000E-03 0.  1.
    9900012    2    1    2    0    0 -0.11437049237E+02  0.21167047714E+02  0.36121643656E+02  0.47787272534E+02  0.20000006792E+02 0.  0.
        -12    1    1    2    0    0  0.11437049237E+02 -0.21167047714E+02 -0.36121643656E+02  0.43400727466E+02  0.00000000000E+00 0.  1.
         11    1    3    3    0    0 -0.46400748405E+01  0.15288338170E+02  0.14122841084E+02  0.21324122938E+02  0.51100000000E-03 0. -1.
        -11    1    3    3    0    0 -0.35922295385E+01  0.27487829251E+01  0.21482913112E+02  0.21953939890E+02  0.51100000000E-03 0.  1.
        -12    1    3    3    0    0 -0.32047448576E+01  0.31299266193E+01  0.51588945966E+00  0.45092097067E+01  0.00000000000E+00 0.  1.
</event>
<event>
 7    1  0.9175399E-010  0.4778727E+02  0.7816164E-02  0.1312668E+00
        -11   -1    0    0    0    0  0.00000000000E+00  0.00000000000E+00  0.45593999997E+02  0.45594000000E+02  0.51100000000E-03 0. -1.
         11   -1    0    0    0    0 -0.00000000000E+00 -0.00000000000E+00 -0.45593999997E+02  0.45594000000E+02  0.51100000000E-03 0.  1.
    9900012    2    1    2    0    0  0.31763718531E+02 -0.11687483369E+02 -0.27167851348E+02  0.47787271558E+02  0.20000002343E+02 0.  0.
         12    1    1    2    0    0 -0.31763718531E+02  0.11687483369E+02  0.27167851348E+02  0.43400728442E+02  0.00000000000E+00 0. -1.
         11    1    3    3    0    0  0.17720886395E+02 -0.11018134010E+01 -0.21729967387E+02  0.28061277417E+02  0.51100000000E-03 0. -1.
        -11    1    3    3    0    0  0.28445670101E+01 -0.13751097366E+01 -0.40839115346E+01  0.51634118513E+01  0.51100000000E-03 0.  1.
         12    1    3    3    0    0  0.11198265126E+02 -0.92105602315E+01 -0.13539724261E+01  0.14562582290E+02  0.00000000000E+00 0. -1.
</event>
<event>
 7    1  0.9175399E-010  0.4778730E+02  0.7816164E-02  0.1312668E+00
        -11   -1    0    0    0    0  0.00000000000E+00  0.00000000000E+00  0.45593999997E+02  0.45594000000E+02  0.51100000000E-03 0. -1.
         11   -1    0    0    0    0 -0.00000000000E+00 -0.00000000000E+00 -0.45593999997E+02  0.45594000000E+02  0.51100000000E-03 0.  1.
    9900012    2    1    2    0    0  0.13176267437E+02 -0.41013273157E+02 -0.52837869843E+01  0.47787297200E+02  0.20000119252E+02 0.  0.
         12    1    1    2    0    0 -0.13176267437E+02  0.41013273157E+02  0.52837869843E+01  0.43400702800E+02  0.00000000000E+00 0. -1.
         11    1    3    3    0    0  0.36758312279E+01 -0.13441319868E+02  0.62661641017E+01  0.15278927574E+02  0.51100000000E-03 0. -1.
        -11    1    3    3    0    0  0.10268446855E+02 -0.20832162023E+02 -0.67098694831E+01  0.24175241966E+02  0.51100000000E-03 0.  1.
         12    1    3    3    0    0 -0.76801064621E+00 -0.67397912667E+01 -0.48400816030E+01  0.83331276598E+01  0.00000000000E+00 0. -1.
</event>
<event>
 7    1  0.9175399E-010  0.4778727E+02  0.7816164E-02  0.1312668E+00
        -11   -1    0    0    0    0  0.00000000000E+00  0.00000000000E+00  0.45593999997E+02  0.45594000000E+02  0.51100000000E-03 0. -1.
         11   -1    0    0    0    0 -0.00000000000E+00 -0.00000000000E+00 -0.45593999997E+02  0.45594000000E+02  0.51100000000E-03 0.  1.
    9900012    2    1    2    0    0 -0.81117790940E+01 -0.14170912205E+01  0.42612370212E+02  0.47787271865E+02  0.20000003741E+02 0.  0.
        -12    1    1    2    0    0  0.81117790940E+01  0.14170912205E+01 -0.42612370212E+02  0.43400728135E+02  0.00000000000E+00 0.  1.
         11    1    3    3    0    0 -0.86379306841E+01 -0.51182496790E+01  0.31662731253E+02  0.33216545229E+02  0.51100000000E-03 0. -1.
        -11    1    3    3    0    0 -0.37407561038E+01  0.23671528348E+00  0.64821909067E+01  0.74878628169E+01  0.51100000000E-03 0.  1.
         12    1    3    3    0    0  0.42669076939E+01  0.34644431750E+01  0.44674480517E+01  0.70828638188E+01  0.00000000000E+00 0. -1.
</event>
<event>
 7    1  0.9175399E-010  0.4778727E+02  0.7816164E-02  0.1312668E+00
        -11   -1    0    0    0    0  0.00000000000E+00  0.00000000000E+00  0.45593999997E+02  0.45594000000E+02  0.51100000000E-03 0. -1.
         11   -1    0    0    0    0 -0.00000000000E+00 -0.00000000000E+00 -0.45593999997E+02  0.45594000000E+02  0.51100000000E-03 0.  1.
    9900012    2    1    2    0    0 -0.22841535399E+02  0.20751914527E+02 -0.30516320281E+02  0.47787268446E+02  0.19999988153E+02 0.  0.
         12    1    1    2    0    0  0.22841535399E+02 -0.20751914527E+02  0.30516320281E+02  0.43400731554E+02  0.00000000000E+00 0. -1.
         11    1    3    3    0    0 -0.42674111860E+01  0.15762275179E+02 -0.91741074407E+01  0.18730306047E+02  0.51100000000E-03 0. -1.
        -11    1    3    3    0    0 -0.77046281066E+01  0.28425390679E+00 -0.66222832060E+01  0.10163499873E+02  0.51100000000E-03 0.  1.
         12    1    3    3    0    0 -0.10869496107E+02  0.47053854412E+01 -0.14719929635E+02  0.18893462526E+02  0.00000000000E+00 0. -1.
</event>
<event>
 7    1  0.9175399E-010  0.4778725E+02  0.7816164E-02  0.1312668E+00
        -11   -1    0    0    0    0  0.00000000000E+00  0.00000000000E+00  0.45593999997E+02  0.45594000000E+02  0.51100000000E-03 0. -1.
         11   -1    0    0    0    0 -0.00000000000E+00 -0.00000000000E+00 -0.45593999997E+02  0.45594000000E+02  0.51100000000E-03 0.  1.
    9900012    2    1    2    0    0 -0.19000235601E+02 -0.91521687652E+01 -0.37932228054E+02  0.47787250338E+02  0.19999905593E+02 0.  0.
         12    1    1    2    0    0  0.19000235601E+02  0.91521687652E+01  0.37932228054E+02  0.43400749662E+02  0.00000000000E+00 0. -1.
         11    1    3    3    0    0 -0.69556239267E+01 -0.10495592695E+02 -0.21623688217E+02  0.25022431189E+02  0.51100000000E-03 0. -1.
        -11    1    3    3    0    0 -0.88807005287E+01  0.47245917221E+01 -0.14799498647E+02  0.17894517856E+02  0.51100000000E-03 0.  1.
        -12    1    3    3    0    0 -0.31639111461E+01 -0.33811677923E+01 -0.15090411904E+01  0.48703012940E+01  0.00000000000E+00 0.  1.
</event>
<event>
 7    1  0.9175399E-010  0.4778727E+02  0.7816164E-02  0.1312668E+00
        -11   -1    0    0    0    0  0.00000000000E+00  0.00000000000E+00  0.45593999997E+02  0.45594000000E+02  0.51100000000E-03 0. -1.
         11   -1    0    0    0    0 -0.00000000000E+00 -0.00000000000E+00 -0.45593999997E+02  0.45594000000E+02  0.51100000000E-03 0.  1.
    9900012    2    1    2    0    0 -0.54219660050E+01  0.44718393963E+01 -0.42827886760E+02  0.47787274807E+02  0.20000017154E+02 0.  0.
         12    1    1    2    0    0  0.54219660050E+01 -0.44718393963E+01  0.42827886760E+02  0.43400725193E+02  0.00000000000E+00 0. -1.
         11    1    3    3    0    0 -0.55080600137E+01  0.23696860137E+01 -0.48875221606E+01  0.77357617627E+01  0.51100000000E-03 0. -1.
        -11    1    3    3    0    0  0.12227339992E+01  0.17181234375E+01 -0.38616707912E+02  0.38674244101E+02  0.51100000000E-03 0.  1.
        -12    1    3    3    0    0 -0.11366399904E+01  0.38402994510E+00  0.67634331201E+00  0.13772689434E+01  0.00000000000E+00 0.  1.
</event>
<event>
 7    1  0.9175399E-010  0.4778727E+02  0.7816164E-02  0.1312668E+00
        -11   -1    0    0    0    0  0.00000000000E+00  0.00000000000E+00  0.45593999997E+02  0.45594000000E+02  0.51100000000E-03 0. -1.
         11   -1    0    0    0    0 -0.00000000000E+00 -0.00000000000E+00 -0.45593999997E+02  0.45594000000E+02  0.51100000000E-03 0.  1.
    9900012    2    1    2    0    0 -0.17179253592E+02  0.23199884178E+02  0.32407744518E+02  0.47787270921E+02  0.19999999436E+02 0.  0.
        -12    1    1    2    0    0  0.17179253592E+02 -0.23199884178E+02 -0.32407744518E+02  0.43400729079E+02  0.00000000000E+00 0.  1.
         11    1    3    3    0    0 -0.16897617461E+02  0.13112208885E+02  0.15834562265E+02  0.26611893207E+02  0.51100000000E-03 0. -1.
        -11    1    3    3    0    0  0.19982953152E+01  0.74861097172E+01  0.15848379606E+02  0.17641036230E+02  0.51100000000E-03 0.  1.
        -12    1    3    3    0    0 -0.22799314463E+01  0.26015655757E+01  0.72480264739E+00  0.35343414835E+01  0.00000000000E+00 0.  1.
</event>
<event>
 7    1  0.9520185E-010  0.4778727E+02  0.7816164E-02  0.1312668E+00
        -11   -1    0    0    0    0  0.00000000000E+00  0.00000000000E+00  0.45593999997E+02  0.45594000000E+02  0.51100000000E-03 0. -1.
         11   -1    0    0    0    0 -0.00000000000E+00 -0.00000000000E+00 -0.45593999997E+02  0.45594000000E+02  0.51100000000E-03 0.  1.
    9900012    2    1    2    0    0 -0.34220424295E+01 -0.15056236309E+02 -0.40561346534E+02  0.47787268913E+02  0.19999990283E+02 0.  0.
         12    1    1    2    0    0  0.34220424295E+01  0.15056236309E+02  0.40561346534E+02  0.43400731087E+02  0.00000000000E+00 0. -1.
         11    1    3    3    0    0  0.36768582526E+01 -0.18212076444E+01 -0.15062473676E+01  0.43709112651E+01  0.51100000000E-03 0. -1.
        -11    1    3    3    0    0 -0.10234037271E+02 -0.96204868207E+01 -0.26743797346E+02  0.30207945681E+02  0.51100000000E-03 0.  1.
         12    1    3    3    0    0  0.31351365888E+01 -0.36145418438E+01 -0.12311301821E+02  0.13208411967E+02  0.00000000000E+00 0. -1.
</event>
<event>
 7    1  0.9175399E-010  0.4778727E+02  0.7816164E-02  0.1312668E+00
        -11   -1    0    0    0    0  0.00000000000E+00  0.00000000000E+00  0.45593999997E+02  0.45594000000E+02  0.51100000000E-03 0. -1.
         11   -1    0    0    0    0 -0.00000000000E+00 -0.00000000000E+00 -0.45593999997E+02  0.45594000000E+02  0.51100000000E-03 0.  1.
    9900012    2    1    2    0    0 -0.23483029829E+02 -0.23049791449E+02  0.28299786648E+02  0.47787268439E+02  0.19999988119E+02 0.  0.
        -12    1    1    2    0    0  0.23483029829E+02  0.23049791449E+02 -0.28299786648E+02  0.43400731561E+02  0.00000000000E+00 0.  1.
         11    1    3    3    0    0 -0.64724019203E+01 -0.10120029122E+02  0.55652944378E+01  0.13239315635E+02  0.51100000000E-03 0. -1.
        -11    1    3    3    0    0 -0.18935198377E+02 -0.11646017658E+02  0.23261138129E+02  0.32175332356E+02  0.51100000000E-03 0.  1.
        -12    1    3    3    0    0  0.19245704690E+01 -0.12837446688E+01 -0.52664591930E+00  0.23726204477E+01  0.00000000000E+00 0.  1.
</event>
<event>
 7    1  0.9175399E-010  0.4778727E+02  0.7816164E-02  0.1312668E+00
        -11   -1    0    0    0    0  0.00000000000E+00  0.00000000000E+00  0.45593999997E+02  0.45594000000E+02  0.51100000000E-03 0. -1.
         11   -1    0    0    0    0 -0.00000000000E+00 -0.00000000000E+00 -0.45593999997E+02  0.45594000000E+02  0.51100000000E-03 0.  1.
    9900012    2    1    2    0    0  0.75459828539E+00 -0.85338142461E+01  0.42546776314E+02  0.47787267530E+02  0.19999983977E+02 0.  0.
        -12    1    1    2    0    0 -0.75459828539E+00  0.85338142461E+01 -0.42546776314E+02  0.43400732470E+02  0.00000000000E+00 0.  1.
         11    1    3    3    0    0  0.10073324182E+01 -0.87737447897E+01  0.34631381794E+02  0.35739696717E+02  0.51100000000E-03 0. -1.
        -11    1    3    3    0    0  0.31859724175E+01 -0.16234252360E+01  0.72450902577E+01  0.80794345622E+01  0.51100000000E-03 0.  1.
         12    1    3    3    0    0 -0.34387065504E+01  0.18633557796E+01  0.67030426323E+00  0.39681362510E+01  0.00000000000E+00 0. -1.
</event>
<event>
 7    1  0.9175399E-010  0.4778727E+02  0.7816164E-02  0.1312668E+00
        -11   -1    0    0    0    0  0.00000000000E+00  0.00000000000E+00  0.45593999997E+02  0.45594000000E+02  0.51100000000E-03 0. -1.
         11   -1    0    0    0    0 -0.00000000000E+00 -0.00000000000E+00 -0.45593999997E+02  0.45594000000E+02  0.51100000000E-03 0.  1.
    9900012    2    1    2    0    0 -0.30680383137E+02 -0.49439669670E+01  0.30296774513E+02  0.47787271150E+02  0.20000000480E+02 0.  0.
        -12    1    1    2    0    0  0.30680383137E+02  0.49439669670E+01 -0.30296774513E+02  0.43400728850E+02  0.00000000000E+00 0.  1.
         11    1    3    3    0    0 -0.13316965932E+01 -0.53911720021E+01  0.65920228012E+01  0.86193338632E+01  0.51100000000E-03 0. -1.
        -11    1    3    3    0    0 -0.28848877648E+02  0.25955941513E+01  0.21777920232E+02  0.36239104024E+02  0.51100000000E-03 0.  1.
        -12    1    3    3    0    0 -0.49980889592E+00 -0.21483891161E+01  0.19268314805E+01  0.29288332628E+01  0.00000000000E+00 0.  1.
</event>
<event>
 7    1  0.9175399E-010  0.4778727E+02  0.7816164E-02  0.1312668E+00
        -11   -1    0    0    0    0  0.00000000000E+00  0.00000000000E+00  0.45593999997E+02  0.45594000000E+02  0.51100000000E-03 0. -1.
         11   -1    0    0    0    0 -0.00000000000E+00 -0.00000000000E+00 -0.45593999997E+02  0.45594000000E+02  0.51100000000E-03 0.  1.
    9900012    2    1    2    0    0  0.31426887942E+02  0.25615546603E+02  0.15486056932E+02  0.47787268753E+02  0.19999989554E+02 0.  0.
        -12    1    1    2    0    0 -0.31426887942E+02 -0.25615546603E+02 -0.15486056932E+02  0.43400731247E+02  0.00000000000E+00 0.  1.
         11    1    3    3    0    0  0.56883482145E+01 -0.69224572317E-01  0.91825053962E+01  0.10801874979E+02  0.51100000000E-03 0. -1.
        -11    1    3    3    0    0  0.12080156059E+02  0.13667060151E+02  0.36085764316E+01  0.18594099271E+02  0.51100000000E-03 0.  1.
         12    1    3    3    0    0  0.13658383669E+02  0.12017711024E+02  0.26949751039E+01  0.18391294503E+02  0.00000000000E+00 0. -1.
</event>
<event>
 7    1  0.9175399E-010  0.4778727E+02  0.7816164E-02  0.1312668E+00
        -11   -1    0    0    0    0  0.00000000000E+00  0.00000000000E+00  0.45593999997E+02  0.45594000000E+02  0.51100000000E-03 0. -1.
         11   -1    0    0    0    0 -0.00000000000E+00 -0.00000000000E+00 -0.45593999997E+02  0.45594000000E+02  0.51100000000E-03 0.  1.
    9900012    2    1    2    0    0 -0.11293157195E+02 -0.21852959242E+02  0.35756625625E+02  0.47787268403E+02  0.19999987956E+02 0.  0.
        -12    1    1    2    0    0  0.11293157195E+02  0.21852959242E+02 -0.35756625625E+02  0.43400731597E+02  0.00000000000E+00 0.  1.
         11    1    3    3    0    0  0.59858516357E+00 -0.38419340962E+01  0.12279561091E+02  0.12880465156E+02  0.51100000000E-03 0. -1.
        -11    1    3    3    0    0 -0.10003565237E+02 -0.32709937308E+01  0.66149743149E+01  0.12430953418E+02  0.51100000000E-03 0.  1.
        -12    1    3    3    0    0 -0.18881771216E+01 -0.14740031415E+02  0.16862090220E+02  0.22475849829E+02  0.00000000000E+00 0.  1.
</event>
<event>
 7    1  0.9175399E-010  0.4778726E+02  0.7816164E-02  0.1312668E+00
        -11   -1    0    0    0    0  0.00000000000E+00  0.00000000000E+00  0.45593999997E+02  0.45594000000E+02  0.51100000000E-03 0. -1.
         11   -1    0    0    0    0 -0.00000000000E+00 -0.00000000000E+00 -0.45593999997E+02  0.45594000000E+02  0.51100000000E-03 0.  1.
    9900012    2    1    2    0    0 -0.22987114247E+02 -0.17953039282E+02 -0.32138840034E+02  0.47787261762E+02  0.19999957679E+02 0.  0.
         12    1    1    2    0    0  0.22987114247E+02  0.17953039282E+02  0.32138840034E+02  0.43400738238E+02  0.00000000000E+00 0. -1.
         11    1    3    3    0    0 -0.38076832316E+01 -0.20479286048E+01  0.11470305087E+00  0.43249994467E+01  0.51100000000E-03 0. -1.
        -11    1    3    3    0    0  0.17994890336E+01 -0.42406344567E+01 -0.86363186967E+01  0.97881122935E+01  0.51100000000E-03 0.  1.
        -12    1    3    3    0    0 -0.20978920049E+02 -0.11664476221E+02 -0.23617224388E+02  0.33674150022E+02  0.00000000000E+00 0.  1.
</event>
<event>
 7    1  0.9175399E-010  0.4778727E+02  0.7816164E-02  0.1312668E+00
        -11   -1    0    0    0    0  0.00000000000E+00  0.00000000000E+00  0.45593999997E+02  0.45594000000E+02  0.51100000000E-03 0. -1.
         11   -1    0    0    0    0 -0.00000000000E+00 -0.00000000000E+00 -0.45593999997E+02  0.45594000000E+02  0.51100000000E-03 0.  1.
    9900012    2    1    2    0    0  0.60717123600E+01 -0.30300581124E+02  0.30473465421E+02  0.47787274174E+02  0.20000014269E+02 0.  0.
        -12    1    1    2    0    0 -0.60717123600E+01  0.30300581124E+02 -0.30473465421E+02  0.43400725826E+02  0.00000000000E+00 0.  1.
         11    1    3    3    0    0 -0.19367945311E+01 -0.10577025431E+02  0.16466582956E+02  0.19666545059E+02  0.51100000000E-03 0. -1.
        -11    1    3    3    0    0  0.26635518176E+01 -0.20019421260E+01 -0.17934716147E+01  0.37840218359E+01  0.51100000000E-03 0.  1.
        -12    1    3    3    0    0  0.53449550736E+01 -0.17721613568E+02  0.15800354079E+02  0.24336707280E+02  0.00000000000E+00 0.  1.
</event>
<event>
 7    1  0.9175399E-010  0.4778726E+02  0.7816164E-02  0.1312668E+00
        -11   -1    0    0    0    0  0.00000000000E+00  0.00000000000E+00  0.45593999997E+02  0.45594000000E+02  0.51100000000E-03 0. -1.
         11   -1    0    0    0    0 -0.00000000000E+00 -0.00000000000E+00 -0.45593999997E+02  0.45594000000E+02  0.51100000000E-03 0.  1.
    9900012    2    1    2    0    0 -0.22697569184E+02  0.30276684736E+02 -0.21254805321E+02  0.47787262280E+02  0.19999960037E+02 0.  0.
         12    1    1    2    0    0  0.22697569184E+02 -0.30276684736E+02  0.21254805321E+02  0.43400737720E+02  0.00000000000E+00 0. -1.
         11    1    3    3    0    0 -0.20275207263E+02  0.21866519431E+02 -0.10395901670E+02  0.31580111991E+02  0.51100000000E-03 0. -1.
        -11    1    3    3    0    0  0.31319671299E+00  0.91763338047E+01 -0.85543882924E+01  0.12549133579E+02  0.51100000000E-03 0.  1.
         12    1    3    3    0    0 -0.27355586336E+01 -0.76616849930E+00 -0.23045153583E+01  0.36580167091E+01  0.00000000000E+00 0. -1.
</event>
<event>
 7    1  0.9175399E-010  0.4778727E+02  0.7816164E-02  0.1312668E+00
        -11   -1    0    0    0    0  0.00000000000E+00  0.00000000000E+00  0.45593999997E+02  0.45594000000E+02  0.51100000000E-03 0. -1.
         11   -1    0    0    0    0 -0.00000000000E+00 -0.00000000000E+00 -0.45593999997E+02  0.45594000000E+02  0.51100000000E-03 0.  1.
    9900012    2    1    2    0    0  0.21772135813E+02 -0.12652092272E+02 -0.35348576671E+02  0.47787271787E+02  0.20000003388E+02 0.  0.
         12    1    1    2    0    0 -0.21772135813E+02  0.12652092272E+02  0.35348576671E+02  0.43400728213E+02  0.00000000000E+00 0. -1.
         11    1    3    3    0    0  0.41581364426E+01 -0.47055396024E+01 -0.72557948627E+01  0.95957678679E+01  0.51100000000E-03 0. -1.
        -11    1    3    3    0    0  0.12026559433E+01  0.36017549783E+01 -0.11633790554E+02  0.12237814476E+02  0.51100000000E-03 0.  1.
        -12    1    3    3    0    0  0.16411343427E+02 -0.11548307648E+02 -0.16458991255E+02  0.25953689443E+02  0.00000000000E+00 0.  1.
</event>
<event>
 7    1  0.9175399E-010  0.4778728E+02  0.7816164E-02  0.1312668E+00
        -11   -1    0    0    0    0  0.00000000000E+00  0.00000000000E+00  0.45593999997E+02  0.45594000000E+02  0.51100000000E-03 0. -1.
         11   -1    0    0    0    0 -0.00000000000E+00 -0.00000000000E+00 -0.45593999997E+02  0.45594000000E+02  0.51100000000E-03 0.  1.
    9900012    2    1    2    0    0  0.16248841281E+02 -0.12644695713E+02  0.38206145550E+02  0.47787277305E+02  0.20000028545E+02 0.  0.
        -12    1    1    2    0    0 -0.16248841281E+02  0.12644695713E+02 -0.38206145550E+02  0.43400722695E+02  0.00000000000E+00 0.  1.
         11    1    3    3    0    0  0.91325473857E+01 -0.25239443196E+01  0.24461783032E+02  0.26232661818E+02  0.51100000000E-03 0. -1.
        -11    1    3    3    0    0  0.77275646440E+01 -0.87752041779E+01  0.50518639717E+01  0.12737377813E+02  0.51100000000E-03 0.  1.
        -12    1    3    3    0    0 -0.61127074869E+00 -0.13455472159E+01  0.86924985464E+01  0.88172376750E+01  0.00000000000E+00 0.  1.
</event>
<event>
 7    1  0.9175399E-010  0.4778727E+02  0.7816164E-02  0.1312668E+00
        -11   -1    0    0    0    0  0.00000000000E+00  0.00000000000E+00  0.45593999997E+02  0.45594000000E+02  0.51100000000E-03 0. -1.
         11   -1    0    0    0    0 -0.00000000000E+00 -0.00000000000E+00 -0.45593999997E+02  0.45594000000E+02  0.51100000000E-03 0.  1.
    9900012    2    1    2    0    0  0.19785297791E+02  0.24620183178E+02 -0.29765952892E+02  0.47787269822E+02  0.19999994427E+02 0.  0.
         12    1    1    2    0    0 -0.19785297791E+02 -0.24620183178E+02  0.29765952892E+02  0.43400730178E+02  0.00000000000E+00 0. -1.
         11    1    3    3    0    0  0.11273516266E+02  0.13375571411E+02 -0.90216998624E+01  0.19682203846E+02  0.51100000000E-03 0. -1.
        -11    1    3    3    0    0 -0.31778562956E+01  0.40166271697E+01 -0.69434180820E+01  0.86280426157E+01  0.51100000000E-03 0.  1.
        -12    1    3    3    0    0  0.11689637821E+02  0.72279845968E+01 -0.13800834947E+02  0.19477023360E+02  0.00000000000E+00 0.  1.
</event>
<event>
 7    1  0.9175399E-010  0.4778727E+02  0.7816164E-02  0.1312668E+00
        -11   -1    0    0    0    0  0.00000000000E+00  0.00000000000E+00  0.45593999997E+02  0.45594000000E+02  0.51100000000E-03 0. -1.
         11   -1    0    0    0    0 -0.00000000000E+00 -0.00000000000E+00 -0.45593999997E+02  0.45594000000E+02  0.51100000000E-03 0.  1.
    9900012    2    1    2    0    0 -0.47651937202E+01  0.20386485600E+02  0.38017199619E+02  0.47787270361E+02  0.19999996886E+02 0.  0.
        -12    1    1    2    0    0  0.47651937202E+01 -0.20386485600E+02 -0.38017199619E+02  0.43400729639E+02  0.00000000000E+00 0.  1.
         11    1    3    3    0    0 -0.93184150145E+01  0.52474762123E+01  0.11435578771E+02  0.15656989719E+02  0.51100000000E-03 0.  1.
        -11    1    3    3    0    0  0.38669492545E+00  0.24289338673E+01  0.12378268672E+02  0.12620253099E+02  0.51100000000E-03 0. -1.
         12    1    3    3    0    0  0.41665263688E+01  0.12710075520E+02  0.14203352176E+02  0.19510027543E+02  0.00000000000E+00 0. -1.
</event>
<event>
 7    1  0.9175399E-010  0.4778724E+02  0.7816164E-02  0.1312668E+00
        -11   -1    0    0    0    0  0.00000000000E+00  0.00000000000E+00  0.45593999997E+02  0.45594000000E+02  0.51100000000E-03 0. -1.
         11   -1    0    0    0    0 -0.00000000000E+00 -0.00000000000E+00 -0.45593999997E+02  0.45594000000E+02  0.51100000000E-03 0.  1.
    9900012    2    1    2    0    0  0.94110550697E+01 -0.20275308526E+02  0.37201749305E+02  0.47787236819E+02  0.19999843951E+02 0.  0.
        -12    1    1    2    0    0 -0.94110550697E+01  0.20275308526E+02 -0.37201749305E+02  0.43400763181E+02  0.00000000000E+00 0.  1.
         11    1    3    3    0    0  0.19322567369E+01 -0.13268451816E+01  0.44763522170E+01  0.50529064572E+01  0.51100000000E-03 0. -1.
        -11    1    3    3    0    0  0.71583668933E+01 -0.38625293675E+01  0.18098376057E+01  0.83328783811E+01  0.51100000000E-03 0.  1.
        -12    1    3    3    0    0  0.32043143955E+00 -0.15085933977E+02  0.30915559482E+02  0.34401451981E+02  0.00000000000E+00 0.  1.
</event>
<event>
 7    1  0.9175399E-010  0.4778725E+02  0.7816164E-02  0.1312668E+00
        -11   -1    0    0    0    0  0.00000000000E+00  0.00000000000E+00  0.45593999997E+02  0.45594000000E+02  0.51100000000E-03 0. -1.
         11   -1    0    0    0    0 -0.00000000000E+00 -0.00000000000E+00 -0.45593999997E+02  0.45594000000E+02  0.51100000000E-03 0.  1.
    9900012    2    1    2    0    0  0.22903744603E+02  0.35121624548E+02 -0.11203350166E+02  0.47787250206E+02  0.19999904990E+02 0.  0.
         12    1    1    2    0    0 -0.22903744603E+02 -0.35121624548E+02  0.11203350166E+02  0.43400749794E+02  0.00000000000E+00 0. -1.
         11    1    3    3    0    0  0.50170948892E+01  0.69119512742E+01 -0.98545324796E+01  0.13040633504E+02  0.51100000000E-03 0. -1.
        -11    1    3    3    0    0  0.17906371925E+02  0.21867155345E+02 -0.21927368432E+01  0.28348169845E+02  0.51100000000E-03 0.  1.
         12    1    3    3    0    0 -0.19722211471E-01  0.63425179286E+01  0.84391915694E+00  0.63984468571E+01  0.00000000000E+00 0. -1.
</event>
<event>
 7    1  0.9175399E-010  0.4778728E+02  0.7816164E-02  0.1312668E+00
        -11   -1    0    0    0    0  0.00000000000E+00  0.00000000000E+00  0.45593999997E+02  0.45594000000E+02  0.51100000000E-03 0. -1.
         11   -1    0    0    0    0 -0.00000000000E+00 -0.00000000000E+00 -0.45593999997E+02  0.45594000000E+02  0.51100000000E-03 0.  1.
    9900012    2    1    2    0    0  0.33915676913E+02  0.72082261332E+01 -0.26103469468E+02  0.47787276703E+02  0.20000025799E+02 0.  0.
         12    1    1    2    0    0 -0.33915676913E+02 -0.72082261332E+01  0.26103469468E+02  0.43400723297E+02  0.00000000000E+00 0. -1.
         11    1    3    3    0    0  0.22965460284E+02 -0.44993990135E+01 -0.13586786907E+02  0.27060261201E+02  0.51100000000E-03 0. -1.
        -11    1    3    3    0    0  0.74956546300E+01  0.76955849755E+01 -0.10612188052E+02  0.15100509990E+02  0.51100000000E-03 0.  1.
         12    1    3    3    0    0  0.34545619995E+01  0.40120401712E+01 -0.19044945083E+01  0.56265055119E+01  0.00000000000E+00 0. -1.
</event>
<event>
 7    1  0.9175399E-010  0.4778730E+02  0.7816164E-02  0.1312668E+00
        -11   -1    0    0    0    0  0.00000000000E+00  0.00000000000E+00  0.45593999997E+02  0.45594000000E+02  0.51100000000E-03 0. -1.
         11   -1    0    0    0    0 -0.00000000000E+00 -0.00000000000E+00 -0.45593999997E+02  0.45594000000E+02  0.51100000000E-03 0.  1.
    9900012    2    1    2    0    0  0.37439574215E+01  0.12917952481E+02  0.41264150790E+02  0.47787298924E+02  0.20000127112E+02 0.  0.
        -12    1    1    2    0    0 -0.37439574215E+01 -0.12917952481E+02 -0.41264150790E+02  0.43400701076E+02  0.00000000000E+00 0.  1.
         11    1    3    3    0    0  0.95131111914E+00  0.10323178874E+02  0.11500201056E+02  0.15483140492E+02  0.51100000000E-03 0. -1.
        -11    1    3    3    0    0 -0.13205678472E+01 -0.42982797293E+01  0.95865767231E+01  0.10588746932E+02  0.51100000000E-03 0.  1.
        -12    1    3    3    0    0  0.41132141495E+01  0.68930533365E+01  0.20177373012E+02  0.21715411499E+02  0.00000000000E+00 0.  1.
</event>
<event>
 7    1  0.1196793E-009  0.4778727E+02  0.7816164E-02  0.1312668E+00
        -11   -1    0    0    0    0  0.00000000000E+00  0.00000000000E+00  0.45593999997E+02  0.45594000000E+02  0.51100000000E-03 0. -1.
         11   -1    0    0    0    0 -0.00000000000E+00 -0.00000000000E+00 -0.45593999997E+02  0.45594000000E+02  0.51100000000E-03 0.  1.
    9900012    2    1    2    0    0  0.57841049320E+01  0.27581815177E+02 -0.33006224879E+02  0.47787270985E+02  0.19999999728E+02 0.  0.
         12    1    1    2    0    0 -0.57841049320E+01 -0.27581815177E+02  0.33006224879E+02  0.43400729015E+02  0.00000000000E+00 0. -1.
         11    1    3    3    0    0  0.38066224305E+01  0.16988889805E+02 -0.68003608585E+01  0.18691111770E+02  0.51100000000E-03 0. -1.
        -11    1    3    3    0    0  0.39987743102E+01  0.93110963792E+01 -0.19497556035E+02  0.21973652481E+02  0.51100000000E-03 0.  1.
         12    1    3    3    0    0 -0.20212918086E+01  0.12818289920E+01 -0.67083079852E+01  0.71225067332E+01  0.00000000000E+00 0. -1.
</event>
<event>
 7    1  0.9175399E-010  0.4778727E+02  0.7816164E-02  0.1312668E+00
        -11   -1    0    0    0    0  0.00000000000E+00  0.00000000000E+00  0.45593999997E+02  0.45594000000E+02  0.51100000000E-03 0.  1.
         11   -1    0    0    0    0 -0.00000000000E+00 -0.00000000000E+00 -0.45593999997E+02  0.45594000000E+02  0.51100000000E-03 0. -1.
    9900012    2    1    2    0    0  0.36949307304E+02 -0.21666093218E+02  0.69966139581E+01  0.47787268296E+02  0.19999987469E+02 0.  0.
         12    1    1    2    0    0 -0.36949307304E+02  0.21666093218E+02 -0.69966139581E+01  0.43400731704E+02  0.00000000000E+00 0. -1.
         11    1    3    3    0    0  0.10093961757E+01 -0.31523724457E+01  0.50874432408E+01  0.60694655173E+01  0.51100000000E-03 0. -1.
        -11    1    3    3    0    0  0.27040332959E+02 -0.13559787969E+02 -0.30240511131E+01  0.30400531931E+02  0.51100000000E-03 0.  1.
        -12    1    3    3    0    0  0.88995781692E+01 -0.49539328038E+01  0.49332218304E+01  0.11317270848E+02  0.00000000000E+00 0.  1.
</event>
<event>
 7    1  0.9175399E-010  0.4778727E+02  0.7816164E-02  0.1312668E+00
        -11   -1    0    0    0    0  0.00000000000E+00  0.00000000000E+00  0.45593999997E+02  0.45594000000E+02  0.51100000000E-03 0. -1.
         11   -1    0    0    0    0 -0.00000000000E+00 -0.00000000000E+00 -0.45593999997E+02  0.45594000000E+02  0.51100000000E-03 0.  1.
    9900012    2    1    2    0    0  0.31741170941E+02 -0.47521083239E-02 -0.29599343013E+02  0.47787273484E+02  0.20000011121E+02 0.  0.
         12    1    1    2    0    0 -0.31741170941E+02  0.47521083239E-02  0.29599343013E+02  0.43400726516E+02  0.00000000000E+00 0. -1.
         11    1    3    3    0    0  0.17936740118E+01 -0.27275211372E+01 -0.80316696423E+01  0.86697379153E+01  0.51100000000E-03 0.  1.
        -11    1    3    3    0    0  0.59040667511E+00  0.48233432977E+00  0.15212134798E+01  0.17015631519E+01  0.51100000000E-03 0. -1.
        -12    1    3    3    0    0  0.29357090255E+02  0.22404346991E+01 -0.23088886851E+02  0.37415972416E+02  0.00000000000E+00 0.  1.
</event>
<event>
 7    1  0.9175399E-010  0.4778728E+02  0.7816164E-02  0.1312668E+00
        -11   -1    0    0    0    0  0.00000000000E+00  0.00000000000E+00  0.45593999997E+02  0.45594000000E+02  0.51100000000E-03 0. -1.
         11   -1    0    0    0    0 -0.00000000000E+00 -0.00000000000E+00 -0.45593999997E+02  0.45594000000E+02  0.51100000000E-03 0.  1.
    9900012    2    1    2    0    0 -0.15374674286E+02  0.21617779899E+02 -0.34349863701E+02  0.47787283952E+02  0.20000058851E+02 0.  0.
         12    1    1    2    0    0  0.15374674286E+02 -0.21617779899E+02  0.34349863701E+02  0.43400716048E+02  0.00000000000E+00 0. -1.
         11    1    3    3    0    0 -0.13460757528E+02  0.63143041758E+01 -0.18327817136E+02  0.23600239653E+02  0.51100000000E-03 0. -1.
        -11    1    3    3    0    0 -0.15237456900E+01  0.88035364795E+01 -0.26586924327E+01  0.93216254584E+01  0.51100000000E-03 0.  1.
        -12    1    3    3    0    0 -0.39017106846E+00  0.64999392441E+01 -0.13363354133E+02  0.14865418841E+02  0.00000000000E+00 0.  1.
</event>
<event>
 7    1  0.9175399E-010  0.4778727E+02  0.7816164E-02  0.1312668E+00
        -11   -1    0    0    0    0  0.00000000000E+00  0.00000000000E+00  0.45593999997E+02  0.45594000000E+02  0.51100000000E-03 0. -1.
         11   -1    0    0    0    0 -0.00000000000E+00 -0.00000000000E+00 -0.45593999997E+02  0.45594000000E+02  0.51100000000E-03 0.  1.
    9900012    2    1    2    0    0 -0.28563708669E+02  0.44397381468E+00  0.32673241709E+02  0.47787270865E+02  0.19999999183E+02 0.  0.
        -12    1    1    2    0    0  0.28563708669E+02 -0.44397381468E+00 -0.32673241709E+02  0.43400729135E+02  0.00000000000E+00 0.  1.
         11    1    3    3    0    0 -0.26094978064E+01 -0.31043010985E+01  0.56056286678E+01  0.69187597974E+01  0.51100000000E-03 0. -1.
        -11    1    3    3    0    0 -0.28904217766E+00  0.32660125516E+01  0.87263619610E+01  0.93220049723E+01  0.51100000000E-03 0.  1.
        -12    1    3    3    0    0 -0.25665168685E+02  0.28226236159E+00  0.18341251080E+02  0.31546506096E+02  0.00000000000E+00 0.  1.
</event>
<event>
 7    1  0.9175399E-010  0.4778729E+02  0.7816164E-02  0.1312668E+00
        -11   -1    0    0    0    0  0.00000000000E+00  0.00000000000E+00  0.45593999997E+02  0.45594000000E+02  0.51100000000E-03 0. -1.
         11   -1    0    0    0    0 -0.00000000000E+00 -0.00000000000E+00 -0.45593999997E+02  0.45594000000E+02  0.51100000000E-03 0.  1.
    9900012    2    1    2    0    0  0.30788200981E+02 -0.30254024877E+02 -0.45168538247E+01  0.47787293676E+02  0.20000103187E+02 0.  0.
         12    1    1    2    0    0 -0.30788200981E+02  0.30254024877E+02  0.45168538247E+01  0.43400706324E+02  0.00000000000E+00 0. -1.
         11    1    3    3    0    0  0.75354645737E+00 -0.41969306208E+01  0.34076375102E+01  0.54583928551E+01  0.51100000000E-03 0. -1.
        -11    1    3    3    0    0  0.25438088581E+02 -0.24900059064E+02 -0.33703629247E+01  0.35755679808E+02  0.51100000000E-03 0.  1.
        -12    1    3    3    0    0  0.45965659433E+01 -0.11570351918E+01 -0.45541284102E+01  0.65732210128E+01  0.00000000000E+00 0.  1.
</event>
<event>
 7    1  0.9175399E-010  0.4778728E+02  0.7816164E-02  0.1312668E+00
        -11   -1    0    0    0    0  0.00000000000E+00  0.00000000000E+00  0.45593999997E+02  0.45594000000E+02  0.51100000000E-03 0.  1.
         11   -1    0    0    0    0 -0.00000000000E+00 -0.00000000000E+00 -0.45593999997E+02  0.45594000000E+02  0.51100000000E-03 0. -1.
    9900012    2    1    2    0    0  0.30331996315E+02 -0.23078530656E+01 -0.30955880991E+02  0.47787277032E+02  0.20000027301E+02 0.  0.
         12    1    1    2    0    0 -0.30331996315E+02  0.23078530656E+01  0.30955880991E+02  0.43400722968E+02  0.00000000000E+00 0. -1.
         11    1    3    3    0    0 -0.70103681457E+00  0.16335506863E+01 -0.56994630832E+01  0.59702445643E+01  0.51100000000E-03 0. -1.
        -11    1    3    3    0    0  0.22211815880E+02  0.22468237371E+01 -0.19263859380E+02  0.29487442413E+02  0.51100000000E-03 0.  1.
        -12    1    3    3    0    0  0.88212172493E+01 -0.61882274891E+01 -0.59925585274E+01  0.12329590055E+02  0.00000000000E+00 0.  1.
</event>
<event>
 7    1  0.9175399E-010  0.4778727E+02  0.7816164E-02  0.1312668E+00
        -11   -1    0    0    0    0  0.00000000000E+00  0.00000000000E+00  0.45593999997E+02  0.45594000000E+02  0.51100000000E-03 0.  1.
         11   -1    0    0    0    0 -0.00000000000E+00 -0.00000000000E+00 -0.45593999997E+02  0.45594000000E+02  0.51100000000E-03 0. -1.
    9900012    2    1    2    0    0 -0.25086208189E+02  0.12599133959E+02 -0.33099350690E+02  0.47787273809E+02  0.20000012603E+02 0.  0.
         12    1    1    2    0    0  0.25086208189E+02 -0.12599133959E+02  0.33099350690E+02  0.43400726191E+02  0.00000000000E+00 0. -1.
         11    1    3    3    0    0 -0.10710513829E+02  0.10910470986E+02 -0.64577117566E+01  0.16596852864E+02  0.51100000000E-03 0.  1.
        -11    1    3    3    0    0 -0.14921744807E+02  0.71920658330E+00 -0.25727951750E+02  0.29750684491E+02  0.51100000000E-03 0. -1.
         12    1    3    3    0    0  0.54605044735E+00  0.96945639059E+00 -0.91368718399E+00  0.14397364531E+01  0.00000000000E+00 0. -1.
</event>
<event>
 7    1 -0.9175399E-010  0.4778727E+02  0.7816164E-02  0.1312668E+00
        -11   -1    0    0    0    0  0.00000000000E+00  0.00000000000E+00  0.45593999997E+02  0.45594000000E+02  0.51100000000E-03 0. -1.
         11   -1    0    0    0    0 -0.00000000000E+00 -0.00000000000E+00 -0.45593999997E+02  0.45594000000E+02  0.51100000000E-03 0.  1.
    9900012    2    1    2    0    0 -0.29347789320E+02  0.47232619336E+01 -0.31623113830E+02  0.47787271094E+02  0.20000000228E+02 0.  0.
         12    1    1    2    0    0  0.29347789320E+02 -0.47232619336E+01  0.31623113830E+02  0.43400728906E+02  0.00000000000E+00 0. -1.
         11    1    3    3    0    0  0.38700088690E-01  0.45179261045E+01 -0.17895322252E+01  0.48595863845E+01  0.51100000000E-03 0. -1.
        -11    1    3    3    0    0 -0.11864492152E+02  0.20160093781E+01 -0.64575888308E+01  0.13657632358E+02  0.51100000000E-03 0.  1.
         12    1    3    3    0    0 -0.17521997256E+02 -0.18106735490E+01 -0.23375992774E+02  0.29270052352E+02  0.00000000000E+00 0. -1.
</event>
<event>
 7    1  0.9175399E-010  0.4778727E+02  0.7816164E-02  0.1312668E+00
        -11   -1    0    0    0    0  0.00000000000E+00  0.00000000000E+00  0.45593999997E+02  0.45594000000E+02  0.51100000000E-03 0. -1.
         11   -1    0    0    0    0 -0.00000000000E+00 -0.00000000000E+00 -0.45593999997E+02  0.45594000000E+02  0.51100000000E-03 0.  1.
    9900012    2    1    2    0    0  0.30450487880E+01 -0.74785577054E+01 -0.42642966427E+02  0.47787265753E+02  0.19999975876E+02 0.  0.
         12    1    1    2    0    0 -0.30450487880E+01  0.74785577054E+01  0.42642966427E+02  0.43400734247E+02  0.00000000000E+00 0. -1.
         11    1    3    3    0    0  0.92662088650E+01 -0.40206131965E+01 -0.17495200065E+02  0.20201732173E+02  0.51100000000E-03 0. -1.
        -11    1    3    3    0    0 -0.53317610528E+01  0.11528331482E+01 -0.19458576677E+02  0.20208733427E+02  0.51100000000E-03 0.  1.
         12    1    3    3    0    0 -0.88939902422E+00 -0.46107776571E+01 -0.56891896848E+01  0.73768001530E+01  0.00000000000E+00 0. -1.
</event>
<event>
 7    1  0.9175399E-010  0.4778727E+02  0.7816164E-02  0.1312668E+00
        -11   -1    0    0    0    0  0.00000000000E+00  0.00000000000E+00  0.45593999997E+02  0.45594000000E+02  0.51100000000E-03 0. -1.
         11   -1    0    0    0    0 -0.00000000000E+00 -0.00000000000E+00 -0.45593999997E+02  0.45594000000E+02  0.51100000000E-03 0.  1.
    9900012    2    1    2    0    0 -0.13740292959E+02  0.33586132880E+02 -0.23807544065E+02  0.47787272739E+02  0.20000007725E+02 0.  0.
         12    1    1    2    0    0  0.13740292959E+02 -0.33586132880E+02  0.23807544065E+02  0.43400727261E+02  0.00000000000E+00 0. -1.
         11    1    3    3    0    0 -0.46980537628E+00  0.62367265873E+01 -0.50919442882E+00  0.62750900268E+01  0.51100000000E-03 0. -1.
        -11    1    3    3    0    0 -0.17689013384E+01  0.17635839957E+02 -0.18713533843E+02  0.25774953193E+02  0.51100000000E-03 0.  1.
        -12    1    3    3    0    0 -0.11501586244E+02  0.97135663349E+01 -0.45848157935E+01  0.15737229519E+02  0.00000000000E+00 0.  1.
</event>
<event>
 7    1  0.9175399E-010  0.4778727E+02  0.7816164E-02  0.1312668E+00
        -11   -1    0    0    0    0  0.00000000000E+00  0.00000000000E+00  0.45593999997E+02  0.45594000000E+02  0.51100000000E-03 0. -1.
         11   -1    0    0    0    0 -0.00000000000E+00 -0.00000000000E+00 -0.45593999997E+02  0.45594000000E+02  0.51100000000E-03 0.  1.
    9900012    2    1    2    0    0  0.14136771491E+02  0.57986697036E+01  0.40622042498E+02  0.47787271720E+02  0.20000003079E+02 0.  0.
        -12    1    1    2    0    0 -0.14136771491E+02 -0.57986697036E+01 -0.40622042498E+02  0.43400728280E+02  0.00000000000E+00 0.  1.
         11    1    3    3    0    0  0.57827053926E+01  0.66388020680E+01  0.20720928307E+02  0.22513778997E+02  0.51100000000E-03 0. -1.
        -11    1    3    3    0    0  0.21811158386E+01 -0.63113040094E+01  0.12589704447E+02  0.14250981823E+02  0.51100000000E-03 0.  1.
        -12    1    3    3    0    0  0.61729502602E+01  0.54711716451E+01  0.73114097448E+01  0.11022510900E+02  0.00000000000E+00 0.  1.
</event>
<event>
 7    1  0.9175399E-010  0.4778727E+02  0.7816164E-02  0.1312668E+00
        -11   -1    0    0    0    0  0.00000000000E+00  0.00000000000E+00  0.45593999997E+02  0.45594000000E+02  0.51100000000E-03 0. -1.
         11   -1    0    0    0    0 -0.00000000000E+00 -0.00000000000E+00 -0.45593999997E+02  0.45594000000E+02  0.51100000000E-03 0.  1.
    9900012    2    1    2    0    0  0.35146655637E+01 -0.99757813640E+01 -0.42092209418E+02  0.47787272108E+02  0.20000004851E+02 0.  0.
         12    1    1    2    0    0 -0.35146655637E+01  0.99757813640E+01  0.42092209418E+02  0.43400727892E+02  0.00000000000E+00 0. -1.
         11    1    3    3    0    0  0.53609945792E+01  0.12983231351E+01 -0.25226315090E+02  0.25822332952E+02  0.51100000000E-03 0. -1.
        -11    1    3    3    0    0  0.20945413767E+01 -0.91117852845E+01 -0.13138226735E+02  0.16125282529E+02  0.51100000000E-03 0.  1.
         12    1    3    3    0    0 -0.39408703922E+01 -0.21623192147E+01 -0.37276675937E+01  0.58396566272E+01  0.00000000000E+00 0. -1.
</event>
<event>
 7    1  0.9175399E-010  0.4778727E+02  0.7816164E-02  0.1312668E+00
        -11   -1    0    0    0    0  0.00000000000E+00  0.00000000000E+00  0.45593999997E+02  0.45594000000E+02  0.51100000000E-03 0. -1.
         11   -1    0    0    0    0 -0.00000000000E+00 -0.00000000000E+00 -0.45593999997E+02  0.45594000000E+02  0.51100000000E-03 0.  1.
    9900012    2    1    2    0    0 -0.32392700499E+02 -0.49158251810E+01  0.28463503757E+02  0.47787269258E+02  0.19999991855E+02 0.  0.
        -12    1    1    2    0    0  0.32392700499E+02  0.49158251810E+01 -0.28463503757E+02  0.43400730742E+02  0.00000000000E+00 0.  1.
         11    1    3    3    0    0 -0.17027914408E+02 -0.70462091915E+01  0.14254532160E+02  0.23297867293E+02  0.51100000000E-03 0. -1.
        -11    1    3    3    0    0 -0.43336298303E+01  0.41619047869E+01  0.11461835478E+02  0.12941231461E+02  0.51100000000E-03 0.  1.
        -12    1    3    3    0    0 -0.11031156261E+02 -0.20315207765E+01  0.27471361190E+01  0.11548170503E+02  0.00000000000E+00 0.  1.
</event>
<event>
 7    1  0.9175399E-010  0.4778727E+02  0.7816164E-02  0.1312668E+00
        -11   -1    0    0    0    0  0.00000000000E+00  0.00000000000E+00  0.45593999997E+02  0.45594000000E+02  0.51100000000E-03 0.  1.
         11   -1    0    0    0    0 -0.00000000000E+00 -0.00000000000E+00 -0.45593999997E+02  0.45594000000E+02  0.51100000000E-03 0. -1.
    9900012    2    1    2    0    0 -0.84991481097E+01 -0.41370902674E+02  0.99918212737E+01  0.47787267298E+02  0.19999982920E+02 0.  0.
         12    1    1    2    0    0  0.84991481097E+01  0.41370902674E+02 -0.99918212737E+01  0.43400732702E+02  0.00000000000E+00 0. -1.
         11    1    3    3    0    0  0.33370705264E+01  0.32579338449E-01  0.11834905059E+01  0.35408686999E+01  0.51100000000E-03 0. -1.
        -11    1    3    3    0    0 -0.10258536847E+02 -0.39835917039E+02  0.82855930202E+01  0.41961755404E+02  0.51100000000E-03 0.  1.
         12    1    3    3    0    0 -0.15776817893E+01 -0.15675649736E+01  0.52273774759E+00  0.22846431947E+01  0.00000000000E+00 0. -1.
</event>
<event>
 7    1  0.9175399E-010  0.4778727E+02  0.7816164E-02  0.1312668E+00
        -11   -1    0    0    0    0  0.00000000000E+00  0.00000000000E+00  0.45593999997E+02  0.45594000000E+02  0.51100000000E-03 0. -1.
         11   -1    0    0    0    0 -0.00000000000E+00 -0.00000000000E+00 -0.45593999997E+02  0.45594000000E+02  0.51100000000E-03 0.  1.
    9900012    2    1    2    0    0 -0.18616061480E+02  0.10969205696E+01 -0.39190081830E+02  0.47787268513E+02  0.19999988460E+02 0.  0.
         12    1    1    2    0    0  0.18616061480E+02 -0.10969205696E+01  0.39190081830E+02  0.43400731487E+02  0.00000000000E+00 0. -1.
         11    1    3    3    0    0 -0.13786088540E+02  0.62802956090E+01 -0.15699288339E+02  0.21816645131E+02  0.51100000000E-03 0. -1.
        -11    1    3    3    0    0 -0.24476215927E+01 -0.17745911882E+01 -0.20797085370E+02  0.21015679515E+02  0.51100000000E-03 0.  1.
        -12    1    3    3    0    0 -0.23823513472E+01 -0.34087838512E+01 -0.26937081210E+01  0.49549438672E+01  0.00000000000E+00 0.  1.
</event>
<event>
 7    1  0.9175399E-010  0.4778727E+02  0.7816164E-02  0.1312668E+00
        -11   -1    0    0    0    0  0.00000000000E+00  0.00000000000E+00  0.45593999997E+02  0.45594000000E+02  0.51100000000E-03 0. -1.
         11   -1    0    0    0    0 -0.00000000000E+00 -0.00000000000E+00 -0.45593999997E+02  0.45594000000E+02  0.51100000000E-03 0.  1.
    9900012    2    1    2    0    0  0.30356700257E+02  0.17340393119E+02 -0.25717794525E+02  0.47787269139E+02  0.19999991314E+02 0.  0.
         12    1    1    2    0    0 -0.30356700257E+02 -0.17340393119E+02  0.25717794525E+02  0.43400730861E+02  0.00000000000E+00 0. -1.
         11    1    3    3    0    0  0.34973973270E+01 -0.40429645144E+01 -0.35014551758E+01  0.63904255521E+01  0.51100000000E-03 0. -1.
        -11    1    3    3    0    0  0.19176764490E+02  0.11427816845E+02 -0.13359459327E+02  0.26015734622E+02  0.51100000000E-03 0.  1.
        -12    1    3    3    0    0  0.76825384396E+01  0.99555407886E+01 -0.88568800229E+01  0.15381108965E+02  0.00000000000E+00 0.  1.
</event>
<event>
 7    1  0.9175399E-010  0.4778728E+02  0.7816164E-02  0.1312668E+00
        -11   -1    0    0    0    0  0.00000000000E+00  0.00000000000E+00  0.45593999997E+02  0.45594000000E+02  0.51100000000E-03 0. -1.
         11   -1    0    0    0    0 -0.00000000000E+00 -0.00000000000E+00 -0.45593999997E+02  0.45594000000E+02  0.51100000000E-03 0.  1.
    9900012    2    1    2    0    0 -0.29152947526E+02 -0.10611315883E+02  0.30350090824E+02  0.47787281258E+02  0.20000046569E+02 0.  0.
        -12    1    1    2    0    0  0.29152947526E+02  0.10611315883E+02 -0.30350090824E+02  0.43400718742E+02  0.00000000000E+00 0.  1.
         11    1    3    3    0    0 -0.13034282764E+02 -0.52161108492E+01  0.60139335613E+01  0.15273105012E+02  0.51100000000E-03 0. -1.
        -11    1    3    3    0    0 -0.10680807922E+02 -0.93577947242E+01  0.19929646891E+02  0.24471183164E+02  0.51100000000E-03 0.  1.
        -12    1    3    3    0    0 -0.54378568397E+01  0.39625896903E+01  0.44065103715E+01  0.80429930820E+01  0.00000000000E+00 0.  1.
</event>
<event>
 7    1  0.9175399E-010  0.4778725E+02  0.7816164E-02  0.1312668E+00
        -11   -1    0    0    0    0  0.00000000000E+00  0.00000000000E+00  0.45593999997E+02  0.45594000000E+02  0.51100000000E-03 0. -1.
         11   -1    0    0    0    0 -0.00000000000E+00 -0.00000000000E+00 -0.45593999997E+02  0.45594000000E+02  0.51100000000E-03 0.  1.
    9900012    2    1    2    0    0 -0.19050195828E+02 -0.26176863769E+02 -0.28904785057E+02  0.47787253957E+02  0.19999922092E+02 0.  0.
         12    1    1    2    0    0  0.19050195828E+02  0.26176863769E+02  0.28904785057E+02  0.43400746043E+02  0.00000000000E+00 0. -1.
         11    1    3    3    0    0 -0.51068253077E+01 -0.52046850022E+01  0.57349450303E+00  0.73141853204E+01  0.51100000000E-03 0. -1.
        -11    1    3    3    0    0 -0.83376369761E+01 -0.20368576727E+02 -0.22130966603E+02  0.31211773280E+02  0.51100000000E-03 0.  1.
        -12    1    3    3    0    0 -0.56057335443E+01 -0.60360203992E+00 -0.73473129578E+01  0.92612953571E+01  0.00000000000E+00 0.  1.
</event>
<event>
 7    1  0.9175399E-010  0.4778727E+02  0.7816164E-02  0.1312668E+00
        -11   -1    0    0    0    0  0.00000000000E+00  0.00000000000E+00  0.45593999997E+02  0.45594000000E+02  0.51100000000E-03 0. -1.
         11   -1    0    0    0    0 -0.00000000000E+00 -0.00000000000E+00 -0.45593999997E+02  0.45594000000E+02  0.51100000000E-03 0.  1.
    9900012    2    1    2    0    0 -0.14359921509E+02  0.21399510964E+02 -0.34921011966E+02  0.47787268532E+02  0.19999988546E+02 0.  0.
         12    1    1    2    0    0  0.14359921509E+02 -0.21399510964E+02  0.34921011966E+02  0.43400731468E+02  0.00000000000E+00 0. -1.
         11    1    3    3    0    0 -0.43833682024E+01  0.24825907466E+01 -0.86607182056E+01  0.10019242173E+02  0.51100000000E-03 0.  1.
        -11    1    3    3    0    0 -0.49574952650E+01 -0.21484761240E+01 -0.64993010531E+01  0.84518414205E+01  0.51100000000E-03 0. -1.
        -12    1    3    3    0    0 -0.50190580413E+01  0.21065396341E+02 -0.19760992707E+02  0.29316184939E+02  0.00000000000E+00 0.  1.
</event>
<event>
 7    1  0.9175399E-010  0.4778727E+02  0.7816164E-02  0.1312668E+00
        -11   -1    0    0    0    0  0.00000000000E+00  0.00000000000E+00  0.45593999997E+02  0.45594000000E+02  0.51100000000E-03 0. -1.
         11   -1    0    0    0    0 -0.00000000000E+00 -0.00000000000E+00 -0.45593999997E+02  0.45594000000E+02  0.51100000000E-03 0.  1.
    9900012    2    1    2    0    0  0.18811484705E+02  0.20565458444E+02  0.33268798582E+02  0.47787274236E+02  0.20000014550E+02 0.  0.
        -12    1    1    2    0    0 -0.18811484705E+02 -0.20565458444E+02 -0.33268798582E+02  0.43400725764E+02  0.00000000000E+00 0.  1.
         11    1    3    3    0    0  0.10036044216E+02  0.11657267967E+02  0.14577839308E+02  0.21192627943E+02  0.51100000000E-03 0. -1.
        -11    1    3    3    0    0 -0.19753166498E+01  0.75486542826E+01  0.10117543795E+02  0.12776883425E+02  0.51100000000E-03 0.  1.
        -12    1    3    3    0    0  0.10750757139E+02  0.13595361942E+01  0.85734154783E+01  0.13817762868E+02  0.00000000000E+00 0.  1.
</event>
<event>
 7    1  0.9175399E-010  0.4778727E+02  0.7816164E-02  0.1312668E+00
        -11   -1    0    0    0    0  0.00000000000E+00  0.00000000000E+00  0.45593999997E+02  0.45594000000E+02  0.51100000000E-03 0. -1.
         11   -1    0    0    0    0 -0.00000000000E+00 -0.00000000000E+00 -0.45593999997E+02  0.45594000000E+02  0.51100000000E-03 0.  1.
    9900012    2    1    2    0    0 -0.10693593285E+01 -0.17981283579E+02 -0.39486111392E+02  0.47787273262E+02  0.20000010112E+02 0.  0.
         12    1    1    2    0    0  0.10693593285E+01  0.17981283579E+02  0.39486111392E+02  0.43400726738E+02  0.00000000000E+00 0. -1.
         11    1    3    3    0    0  0.72183095931E+01 -0.48471906198E+01 -0.69851467764E+01  0.11153094908E+02  0.51100000000E-03 0. -1.
        -11    1    3    3    0    0 -0.20032407223E+00 -0.20927538646E+01 -0.10614859186E+02  0.10821043585E+02  0.51100000000E-03 0.  1.
         12    1    3    3    0    0 -0.80873448494E+01 -0.11041339094E+02 -0.21886105429E+02  0.25813134768E+02  0.00000000000E+00 0. -1.
</event>
<event>
 7    1  0.9175399E-010  0.4778727E+02  0.7816164E-02  0.1312668E+00
        -11   -1    0    0    0    0  0.00000000000E+00  0.00000000000E+00  0.45593999997E+02  0.45594000000E+02  0.51100000000E-03 0. -1.
         11   -1    0    0    0    0 -0.00000000000E+00 -0.00000000000E+00 -0.45593999997E+02  0.45594000000E+02  0.51100000000E-03 0.  1.
    9900012    2    1    2    0    0 -0.17404273966E+00  0.43026503406E+02  0.56844481227E+01  0.47787271473E+02  0.20000001954E+02 0.  0.
        -12    1    1    2    0    0  0.17404273966E+00 -0.43026503406E+02 -0.56844481227E+01  0.43400728527E+02  0.00000000000E+00 0.  1.
         11    1    3    3    0    0  0.84509956030E+01  0.14346711476E+02  0.25908945059E+01  0.16851118404E+02  0.51100000000E-03 0. -1.
        -11    1    3    3    0    0 -0.58342414104E+01  0.13062090403E+02  0.45306375843E+01  0.15006107280E+02  0.51100000000E-03 0.  1.
         12    1    3    3    0    0 -0.27907969322E+01  0.15617701527E+02 -0.14370839674E+01  0.15930045789E+02  0.00000000000E+00 0. -1.
</event>
<event>
 7    1  0.9175399E-010  0.4778727E+02  0.7816164E-02  0.1312668E+00
        -11   -1    0    0    0    0  0.00000000000E+00  0.00000000000E+00  0.45593999997E+02  0.45594000000E+02  0.51100000000E-03 0. -1.
         11   -1    0    0    0    0 -0.00000000000E+00 -0.00000000000E+00 -0.45593999997E+02  0.45594000000E+02  0.51100000000E-03 0.  1.
    9900012    2    1    2    0    0 -0.36578671114E+02  0.84390482949E+01 -0.21780874086E+02  0.47787271981E+02  0.20000004272E+02 0.  0.
         12    1    1    2    0    0  0.36578671114E+02 -0.84390482949E+01  0.21780874086E+02  0.43400728019E+02  0.00000000000E+00 0. -1.
         11    1    3    3    0    0 -0.15278298978E+02 -0.15946558813E+01 -0.39429572854E+01  0.15859264152E+02  0.51100000000E-03 0.  1.
        -11    1    3    3    0    0 -0.31962223055E+01 -0.27962017474E+01 -0.35641697643E+01  0.55441760081E+01  0.51100000000E-03 0. -1.
         12    1    3    3    0    0 -0.18104149831E+02  0.12829905924E+02 -0.14273747036E+02  0.26383831821E+02  0.00000000000E+00 0. -1.
</event>
<event>
 7    1  0.9175399E-010  0.4778721E+02  0.7816164E-02  0.1312668E+00
        -11   -1    0    0    0    0  0.00000000000E+00  0.00000000000E+00  0.45593999997E+02  0.45594000000E+02  0.51100000000E-03 0. -1.
         11   -1    0    0    0    0 -0.00000000000E+00 -0.00000000000E+00 -0.45593999997E+02  0.45594000000E+02  0.51100000000E-03 0.  1.
    9900012    2    1    2    0    0 -0.51497670310E+01 -0.14343820762E+02 -0.40636970175E+02  0.47787209229E+02  0.19999718156E+02 0.  0.
         12    1    1    2    0    0  0.51497670310E+01  0.14343820762E+02  0.40636970175E+02  0.43400790771E+02  0.00000000000E+00 0. -1.
         11    1    3    3    0    0 -0.63604914016E+01 -0.11499677173E+02 -0.11950288834E+02  0.17762540061E+02  0.51100000000E-03 0. -1.
        -11    1    3    3    0    0  0.28203098507E+01  0.14850834211E+01 -0.19319514218E+02  0.19580685644E+02  0.51100000000E-03 0.  1.
         12    1    3    3    0    0 -0.16095854801E+01 -0.43292270101E+01 -0.93671671235E+01  0.10443983524E+02  0.00000000000E+00 0. -1.
</event>
<event>
 7    1  0.9175399E-010  0.4778727E+02  0.7816164E-02  0.1312668E+00
        -11   -1    0    0    0    0  0.00000000000E+00  0.00000000000E+00  0.45593999997E+02  0.45594000000E+02  0.51100000000E-03 0. -1.
         11   -1    0    0    0    0 -0.00000000000E+00 -0.00000000000E+00 -0.45593999997E+02  0.45594000000E+02  0.51100000000E-03 0.  1.
    9900012    2    1    2    0    0 -0.92467952084E+00  0.36177912544E+02 -0.23956768670E+02  0.47787272432E+02  0.20000006328E+02 0.  0.
         12    1    1    2    0    0  0.92467952084E+00 -0.36177912544E+02  0.23956768670E+02  0.43400727568E+02  0.00000000000E+00 0. -1.
         11    1    3    3    0    0 -0.36319975070E+01  0.22263022941E+01  0.20684273254E+01  0.47356329732E+01  0.51100000000E-03 0. -1.
        -11    1    3    3    0    0  0.18170730870E+01  0.29348056760E+02 -0.23951425400E+02  0.37924674938E+02  0.51100000000E-03 0.  1.
         12    1    3    3    0    0  0.89024489918E+00  0.46035534898E+01 -0.20737705961E+01  0.51269645210E+01  0.00000000000E+00 0. -1.
</event>
<event>
 7    1  0.9175399E-010  0.4778727E+02  0.7816164E-02  0.1312668E+00
        -11   -1    0    0    0    0  0.00000000000E+00  0.00000000000E+00  0.45593999997E+02  0.45594000000E+02  0.51100000000E-03 0. -1.
         11   -1    0    0    0    0 -0.00000000000E+00 -0.00000000000E+00 -0.45593999997E+02  0.45594000000E+02  0.51100000000E-03 0.  1.
    9900012    2    1    2    0    0  0.27485716190E+02  0.31362056800E+02 -0.12024148821E+02  0.47787270097E+02  0.19999995682E+02 0.  0.
         12    1    1    2    0    0 -0.27485716190E+02 -0.31362056800E+02  0.12024148821E+02  0.43400729903E+02  0.00000000000E+00 0. -1.
         11    1    3    3    0    0 -0.39442358540E+00  0.96488120936E+01 -0.36584371352E+00  0.96637977351E+01  0.51100000000E-03 0. -1.
        -11    1    3    3    0    0  0.23415874363E+02  0.21157404235E+02 -0.86877939101E+01  0.32732502035E+02  0.51100000000E-03 0.  1.
        -12    1    3    3    0    0  0.44642654117E+01  0.55584047170E+00 -0.29705111975E+01  0.53909703274E+01  0.00000000000E+00 0.  1.
</event>
<event>
 7    1  0.9175399E-010  0.4778727E+02  0.7816164E-02  0.1312668E+00
        -11   -1    0    0    0    0  0.00000000000E+00  0.00000000000E+00  0.45593999997E+02  0.45594000000E+02  0.51100000000E-03 0. -1.
         11   -1    0    0    0    0 -0.00000000000E+00 -0.00000000000E+00 -0.45593999997E+02  0.45594000000E+02  0.51100000000E-03 0.  1.
    9900012    2    1    2    0    0 -0.22385906056E+02  0.18249346090E+02  0.32395306524E+02  0.47787270658E+02  0.19999998237E+02 0.  0.
        -12    1    1    2    0    0  0.22385906056E+02 -0.18249346090E+02 -0.32395306524E+02  0.43400729342E+02  0.00000000000E+00 0.  1.
         11    1    3    3    0    0 -0.14960540617E+02  0.91801881777E+01  0.28277310962E+02  0.33282126525E+02  0.51100000000E-03 0. -1.
        -11    1    3    3    0    0  0.38295091518E+00  0.15650868265E+01 -0.15896972084E+01  0.22634676170E+01  0.51100000000E-03 0.  1.
        -12    1    3    3    0    0 -0.78083163544E+01  0.75040710856E+01  0.57076927703E+01  0.12241676515E+02  0.00000000000E+00 0.  1.
</event>
<event>
 7    1  0.9175399E-010  0.4778727E+02  0.7816164E-02  0.1312668E+00
        -11   -1    0    0    0    0  0.00000000000E+00  0.00000000000E+00  0.45593999997E+02  0.45594000000E+02  0.51100000000E-03 0. -1.
         11   -1    0    0    0    0 -0.00000000000E+00 -0.00000000000E+00 -0.45593999997E+02  0.45594000000E+02  0.51100000000E-03 0.  1.
    9900012    2    1    2    0    0  0.64182567854E+00 -0.89819449918E+01  0.42456281259E+02  0.47787273113E+02  0.20000009430E+02 0.  0.
        -12    1    1    2    0    0 -0.64182567854E+00  0.89819449918E+01 -0.42456281259E+02  0.43400726887E+02  0.00000000000E+00 0.  1.
         11    1    3    3    0    0 -0.10391564094E+01 -0.14101142031E+01  0.21081300387E+01  0.27408904812E+01  0.51100000000E-03 0. -1.
        -11    1    3    3    0    0  0.16580673145E+01 -0.11351005932E+02  0.39554930017E+02  0.41184791026E+02  0.51100000000E-03 0.  1.
        -12    1    3    3    0    0  0.22914773498E-01  0.37791751435E+01  0.79322120246E+00  0.38615916056E+01  0.00000000000E+00 0.  1.
</event>
<event>
 7    1  0.9175399E-010  0.4778728E+02  0.7816164E-02  0.1312668E+00
        -11   -1    0    0    0    0  0.00000000000E+00  0.00000000000E+00  0.45593999997E+02  0.45594000000E+02  0.51100000000E-03 0. -1.
         11   -1    0    0    0    0 -0.00000000000E+00 -0.00000000000E+00 -0.45593999997E+02  0.45594000000E+02  0.51100000000E-03 0.  1.
    9900012    2    1    2    0    0 -0.28860488779E+02 -0.10991989503E+02 -0.30493788209E+02  0.47787276906E+02  0.20000026725E+02 0.  0.
         12    1    1    2    0    0  0.28860488779E+02  0.10991989503E+02  0.30493788209E+02  0.43400723094E+02  0.00000000000E+00 0. -1.
         11    1    3    3    0    0 -0.43168188574E+01 -0.10161169374E+02 -0.13232388975E+02  0.17233119461E+02  0.51100000000E-03 0. -1.
        -11    1    3    3    0    0 -0.11627412516E+01  0.10340615185E+01 -0.21445468177E+01  0.26495908659E+01  0.51100000000E-03 0.  1.
         12    1    3    3    0    0 -0.23380928670E+02 -0.18648816472E+01 -0.15116852416E+02  0.27904566579E+02  0.00000000000E+00 0. -1.
</event>
<event>
 7    1  0.9175399E-010  0.4778727E+02  0.7816164E-02  0.1312668E+00
        -11   -1    0    0    0    0  0.00000000000E+00  0.00000000000E+00  0.45593999997E+02  0.45594000000E+02  0.51100000000E-03 0. -1.
         11   -1    0    0    0    0 -0.00000000000E+00 -0.00000000000E+00 -0.45593999997E+02  0.45594000000E+02  0.51100000000E-03 0.  1.
    9900012    2    1    2    0    0  0.10700088786E+02  0.22516103106E+02 -0.35526846633E+02  0.47787266932E+02  0.19999981250E+02 0.  0.
         12    1    1    2    0    0 -0.10700088786E+02 -0.22516103106E+02  0.35526846633E+02  0.43400733068E+02  0.00000000000E+00 0. -1.
         11    1    3    3    0    0  0.12881487898E+02  0.11717032851E+02 -0.12532248349E+02  0.21454110055E+02  0.51100000000E-03 0. -1.
        -11    1    3    3    0    0 -0.86029940616E+00  0.27632824343E+00 -0.75145897749E+01  0.75687206391E+01  0.51100000000E-03 0.  1.
         12    1    3    3    0    0 -0.13210997062E+01  0.10522742012E+02 -0.15480008510E+02  0.18764436238E+02  0.00000000000E+00 0. -1.
</event>
<event>
 7    1  0.9175399E-010  0.4778726E+02  0.7816164E-02  0.1312668E+00
        -11   -1    0    0    0    0  0.00000000000E+00  0.00000000000E+00  0.45593999997E+02  0.45594000000E+02  0.51100000000E-03 0. -1.
         11   -1    0    0    0    0 -0.00000000000E+00 -0.00000000000E+00 -0.45593999997E+02  0.45594000000E+02  0.51100000000E-03 0.  1.
    9900012    2    1    2    0    0  0.22858094340E+02  0.19879385811E+02 -0.31079599694E+02  0.47787262976E+02  0.19999963215E+02 0.  0.
         12    1    1    2    0    0 -0.22858094340E+02 -0.19879385811E+02  0.31079599694E+02  0.43400737024E+02  0.00000000000E+00 0. -1.
         11    1    3    3    0    0 -0.32368209544E+01  0.20215860702E+01 -0.16357040081E+01  0.41520293825E+01  0.51100000000E-03 0. -1.
        -11    1    3    3    0    0  0.26291369018E+02  0.18079436557E+02 -0.29170079851E+02  0.43231882562E+02  0.51100000000E-03 0.  1.
        -12    1    3    3    0    0 -0.19645372395E+00 -0.22163681616E+00 -0.27381583465E+00  0.40335103227E+00  0.00000000000E+00 0.  1.
</event>
<event>
 7    1  0.9175399E-010  0.4778729E+02  0.7816164E-02  0.1312668E+00
        -11   -1    0    0    0    0  0.00000000000E+00  0.00000000000E+00  0.45593999997E+02  0.45594000000E+02  0.51100000000E-03 0.  1.
         11   -1    0    0    0    0 -0.00000000000E+00 -0.00000000000E+00 -0.45593999997E+02  0.45594000000E+02  0.51100000000E-03 0. -1.
    9900012    2    1    2    0    0 -0.40444497831E+02 -0.82182725191E+01  0.13428491266E+02  0.47787288190E+02  0.20000078171E+02 0.  0.
        -12    1    1    2    0    0  0.40444497831E+02  0.82182725191E+01 -0.13428491266E+02  0.43400711810E+02  0.00000000000E+00 0.  1.
         11    1    3    3    0    0 -0.27426264210E+02 -0.38838451513E+01  0.63056197110E+01  0.28408538538E+02  0.51100000000E-03 0. -1.
        -11    1    3    3    0    0 -0.67127429928E+01 -0.75306524959E+01  0.70528184181E+01  0.12309097993E+02  0.51100000000E-03 0.  1.
        -12    1    3    3    0    0 -0.63054906277E+01  0.31962251281E+01  0.70053136759E-01  0.70696516581E+01  0.00000000000E+00 0.  1.
</event>
<event>
 7    1  0.9175399E-010  0.4778727E+02  0.7816164E-02  0.1312668E+00
        -11   -1    0    0    0    0  0.00000000000E+00  0.00000000000E+00  0.45593999997E+02  0.45594000000E+02  0.51100000000E-03 0. -1.
         11   -1    0    0    0    0 -0.00000000000E+00 -0.00000000000E+00 -0.45593999997E+02  0.45594000000E+02  0.51100000000E-03 0.  1.
    9900012    2    1    2    0    0 -0.75479013420E+01  0.58797874916E+01 -0.42332969712E+02  0.47787273736E+02  0.20000012271E+02 0.  0.
         12    1    1    2    0    0  0.75479013420E+01 -0.58797874916E+01  0.42332969712E+02  0.43400726264E+02  0.00000000000E+00 0. -1.
         11    1    3    3    0    0  0.24206965140E+01  0.96705561310E+01 -0.17516258981E+02  0.20154373134E+02  0.51100000000E-03 0. -1.
        -11    1    3    3    0    0 -0.33264977734E+01 -0.29619836396E+01 -0.15720431717E+02  0.16339244418E+02  0.51100000000E-03 0.  1.
         12    1    3    3    0    0 -0.66421000826E+01 -0.82878499980E+00 -0.90962790144E+01  0.11293656184E+02  0.00000000000E+00 0. -1.
</event>
<event>
 7    1  0.9175399E-010  0.4778727E+02  0.7816164E-02  0.1312668E+00
        -11   -1    0    0    0    0  0.00000000000E+00  0.00000000000E+00  0.45593999997E+02  0.45594000000E+02  0.51100000000E-03 0. -1.
         11   -1    0    0    0    0 -0.00000000000E+00 -0.00000000000E+00 -0.45593999997E+02  0.45594000000E+02  0.51100000000E-03 0.  1.
    9900012    2    1    2    0    0 -0.15633471892E+02  0.53427986717E+01  0.40133184662E+02  0.47787268990E+02  0.19999990635E+02 0.  0.
        -12    1    1    2    0    0  0.15633471892E+02 -0.53427986717E+01 -0.40133184662E+02  0.43400731010E+02  0.00000000000E+00 0.  1.
         11    1    3    3    0    0 -0.85745188936E+01  0.11870486730E+02  0.31575091066E+02  0.34805419198E+02  0.51100000000E-03 0. -1.
        -11    1    3    3    0    0 -0.55257861645E+01 -0.40819031921E+01  0.62134851702E+01  0.92630256734E+01  0.51100000000E-03 0.  1.
         12    1    3    3    0    0 -0.15331668343E+01 -0.24457848666E+01  0.23446084257E+01  0.37188241187E+01  0.00000000000E+00 0. -1.
</event>
<event>
 7    1  0.9175399E-010  0.4778731E+02  0.7816164E-02  0.1312668E+00
        -11   -1    0    0    0    0  0.00000000000E+00  0.00000000000E+00  0.45593999997E+02  0.45594000000E+02  0.51100000000E-03 0. -1.
         11   -1    0    0    0    0 -0.00000000000E+00 -0.00000000000E+00 -0.45593999997E+02  0.45594000000E+02  0.51100000000E-03 0.  1.
    9900012    2    1    2    0    0 -0.16444407808E+02  0.17177303422E+01  0.40127928344E+02  0.47787311309E+02  0.20000183580E+02 0.  0.
        -12    1    1    2    0    0  0.16444407808E+02 -0.17177303422E+01 -0.40127928344E+02  0.43400688691E+02  0.00000000000E+00 0.  1.
         11    1    3    3    0    0 -0.11675621594E+02 -0.55164306451E+00  0.19758846115E+02  0.22957274441E+02  0.51100000000E-03 0. -1.
        -11    1    3    3    0    0  0.32596341113E+01  0.25065158990E+01  0.13964297020E+02  0.14557109191E+02  0.51100000000E-03 0.  1.
        -12    1    3    3    0    0 -0.80284203249E+01 -0.23714249227E+00  0.64047852089E+01  0.10272927677E+02  0.00000000000E+00 0.  1.
</event>
<event>
 7    1  0.9175399E-010  0.4778727E+02  0.7816164E-02  0.1312668E+00
        -11   -1    0    0    0    0  0.00000000000E+00  0.00000000000E+00  0.45593999997E+02  0.45594000000E+02  0.51100000000E-03 0. -1.
         11   -1    0    0    0    0 -0.00000000000E+00 -0.00000000000E+00 -0.45593999997E+02  0.45594000000E+02  0.51100000000E-03 0.  1.
    9900012    2    1    2    0    0 -0.39860177034E+02 -0.16510530615E+02  0.47108596326E+01  0.47787268061E+02  0.19999986396E+02 0.  0.
        -12    1    1    2    0    0  0.39860177034E+02  0.16510530615E+02 -0.47108596326E+01  0.43400731939E+02  0.00000000000E+00 0.  1.
         11    1    3    3    0    0 -0.30696688534E+02 -0.10244122159E+02  0.32410030168E+01  0.32522804715E+02  0.51100000000E-03 0. -1.
        -11    1    3    3    0    0 -0.15855055907E+01 -0.63853274577E+01 -0.20733716309E+01  0.68981957714E+01  0.51100000000E-03 0.  1.
        -12    1    3    3    0    0 -0.75779829098E+01  0.11891900153E+00  0.35432282466E+01  0.83662675739E+01  0.00000000000E+00 0.  1.
</event>
<event>
 7    1  0.9175399E-010  0.4778727E+02  0.7816164E-02  0.1312668E+00
        -11   -1    0    0    0    0  0.00000000000E+00  0.00000000000E+00  0.45593999997E+02  0.45594000000E+02  0.51100000000E-03 0. -1.
         11   -1    0    0    0    0 -0.00000000000E+00 -0.00000000000E+00 -0.45593999997E+02  0.45594000000E+02  0.51100000000E-03 0.  1.
    9900012    2    1    2    0    0 -0.28595689372E+01  0.34221047126E+02  0.26539896406E+02  0.47787270719E+02  0.19999998514E+02 0.  0.
        -12    1    1    2    0    0  0.28595689372E+01 -0.34221047126E+02 -0.26539896406E+02  0.43400729281E+02  0.00000000000E+00 0.  1.
         11    1    3    3    0    0  0.44473438599E+01  0.20404902636E+02  0.10719848520E+02  0.23474540924E+02  0.51100000000E-03 0. -1.
        -11    1    3    3    0    0 -0.31907845011E+01 -0.78802663700E+00  0.26837039825E+01  0.42431543738E+01  0.51100000000E-03 0.  1.
        -12    1    3    3    0    0 -0.41161282960E+01  0.14604171127E+02  0.13136343903E+02  0.20069575421E+02  0.00000000000E+00 0.  1.
</event>
<event>
 7    1  0.9175399E-010  0.4778727E+02  0.7816164E-02  0.1312668E+00
        -11   -1    0    0    0    0  0.00000000000E+00  0.00000000000E+00  0.45593999997E+02  0.45594000000E+02  0.51100000000E-03 0. -1.
         11   -1    0    0    0    0 -0.00000000000E+00 -0.00000000000E+00 -0.45593999997E+02  0.45594000000E+02  0.51100000000E-03 0.  1.
    9900012    2    1    2    0    0 -0.86956488538E+01 -0.41496963379E+02 -0.92742089375E+01  0.47787271549E+02  0.20000002302E+02 0.  0.
         12    1    1    2    0    0  0.86956488538E+01  0.41496963379E+02  0.92742089375E+01  0.43400728451E+02  0.00000000000E+00 0. -1.
         11    1    3    3    0    0 -0.12899835137E+01  0.16154232773E+01 -0.17570610199E+01  0.27131003518E+01  0.51100000000E-03 0. -1.
        -11    1    3    3    0    0 -0.48816260991E+01 -0.40116432681E+02 -0.59201016589E+01  0.40843678193E+02  0.51100000000E-03 0.  1.
        -12    1    3    3    0    0 -0.25240392411E+01 -0.29959539748E+01 -0.15970462587E+01  0.42304930046E+01  0.00000000000E+00 0.  1.
</event>
<event>
 7    1  0.9175399E-010  0.4778727E+02  0.7816164E-02  0.1312668E+00
        -11   -1    0    0    0    0  0.00000000000E+00  0.00000000000E+00  0.45593999997E+02  0.45594000000E+02  0.51100000000E-03 0.  1.
         11   -1    0    0    0    0 -0.00000000000E+00 -0.00000000000E+00 -0.45593999997E+02  0.45594000000E+02  0.51100000000E-03 0. -1.
    9900012    2    1    2    0    0  0.52813329620E+01  0.43059873334E+02 -0.12564166533E+01  0.47787265534E+02  0.19999974876E+02 0.  0.
        -12    1    1    2    0    0 -0.52813329620E+01 -0.43059873334E+02  0.12564166533E+01  0.43400734466E+02  0.00000000000E+00 0.  1.
         11    1    3    3    0    0 -0.71377192243E+00  0.34055837187E+02  0.36736552282E+01  0.34260841494E+02  0.51100000000E-03 0. -1.
        -11    1    3    3    0    0  0.24734592665E+01 -0.39338002386E+00 -0.48792508910E+00  0.25516308001E+01  0.51100000000E-03 0.  1.
         12    1    3    3    0    0  0.35216456179E+01  0.93974161705E+01 -0.44421467924E+01  0.10974793240E+02  0.00000000000E+00 0. -1.
</event>
<event>
 7    1  0.9175399E-010  0.4778726E+02  0.7816164E-02  0.1312668E+00
        -11   -1    0    0    0    0  0.00000000000E+00  0.00000000000E+00  0.45593999997E+02  0.45594000000E+02  0.51100000000E-03 0. -1.
         11   -1    0    0    0    0 -0.00000000000E+00 -0.00000000000E+00 -0.45593999997E+02  0.45594000000E+02  0.51100000000E-03 0.  1.
    9900012    2    1    2    0    0  0.61397845531E+01 -0.35306927552E+02  0.24481586744E+02  0.47787260640E+02  0.19999952561E+02 0.  0.
        -12    1    1    2    0    0 -0.61397845531E+01  0.35306927552E+02 -0.24481586744E+02  0.43400739360E+02  0.00000000000E+00 0.  1.
         11    1    3    3    0    0  0.62972583314E+01 -0.22048794220E+01  0.26016205579E+01  0.71613815389E+01  0.51100000000E-03 0. -1.
        -11    1    3    3    0    0 -0.27864983876E+01 -0.14064842705E+02  0.54397895267E+01  0.15335438824E+02  0.51100000000E-03 0.  1.
         12    1    3    3    0    0  0.26290246093E+01 -0.19037205426E+02  0.16440176659E+02  0.25290440277E+02  0.00000000000E+00 0. -1.
</event>
<event>
 7    1  0.9175399E-010  0.4778727E+02  0.7816164E-02  0.1312668E+00
        -11   -1    0    0    0    0  0.00000000000E+00  0.00000000000E+00  0.45593999997E+02  0.45594000000E+02  0.51100000000E-03 0. -1.
         11   -1    0    0    0    0 -0.00000000000E+00 -0.00000000000E+00 -0.45593999997E+02  0.45594000000E+02  0.51100000000E-03 0.  1.
    9900012    2    1    2    0    0  0.43162582158E+01 -0.32927305455E+02  0.27942541431E+02  0.47787272459E+02  0.20000006449E+02 0.  0.
        -12    1    1    2    0    0 -0.43162582158E+01  0.32927305455E+02 -0.27942541431E+02  0.43400727541E+02  0.00000000000E+00 0.  1.
         11    1    3    3    0    0  0.75378572373E+01 -0.19196999868E+02  0.20365382036E+02  0.28984355805E+02  0.51100000000E-03 0. -1.
        -11    1    3    3    0    0 -0.62381583001E+01 -0.11017733205E+02  0.36985415491E+01  0.13190309845E+02  0.51100000000E-03 0.  1.
        -12    1    3    3    0    0  0.30165592786E+01 -0.27125723816E+01  0.38786178453E+01  0.56126068094E+01  0.00000000000E+00 0.  1.
</event>
<event>
 7    1  0.9175399E-010  0.4778727E+02  0.7816164E-02  0.1312668E+00
        -11   -1    0    0    0    0  0.00000000000E+00  0.00000000000E+00  0.45593999997E+02  0.45594000000E+02  0.51100000000E-03 0. -1.
         11   -1    0    0    0    0 -0.00000000000E+00 -0.00000000000E+00 -0.45593999997E+02  0.45594000000E+02  0.51100000000E-03 0.  1.
    9900012    2    1    2    0    0 -0.71984475355E+01  0.16554195336E+02  0.39468518837E+02  0.47787274092E+02  0.20000013897E+02 0.  0.
        -12    1    1    2    0    0  0.71984475355E+01 -0.16554195336E+02 -0.39468518837E+02  0.43400725908E+02  0.00000000000E+00 0.  1.
         11    1    3    3    0    0 -0.36756060301E+01  0.95398913297E+01  0.19603418199E+02  0.22109129599E+02  0.51100000000E-03 0. -1.
        -11    1    3    3    0    0  0.54957731701E+01  0.16029258221E+01  0.77403035209E+01  0.96273149312E+01  0.51100000000E-03 0.  1.
        -12    1    3    3    0    0 -0.90186146755E+01  0.54113781844E+01  0.12124797117E+02  0.16050829562E+02  0.00000000000E+00 0.  1.
</event>
<event>
 7    1  0.9175399E-010  0.4778727E+02  0.7816164E-02  0.1312668E+00
        -11   -1    0    0    0    0  0.00000000000E+00  0.00000000000E+00  0.45593999997E+02  0.45594000000E+02  0.51100000000E-03 0. -1.
         11   -1    0    0    0    0 -0.00000000000E+00 -0.00000000000E+00 -0.45593999997E+02  0.45594000000E+02  0.51100000000E-03 0.  1.
    9900012    2    1    2    0    0  0.20156006692E+02  0.11817256012E+02 -0.36574736035E+02  0.47787268883E+02  0.19999990146E+02 0.  0.
         12    1    1    2    0    0 -0.20156006692E+02 -0.11817256012E+02  0.36574736035E+02  0.43400731117E+02  0.00000000000E+00 0. -1.
         11    1    3    3    0    0 -0.49838966541E+00 -0.35609322174E+01 -0.33392659851E+01  0.49070691961E+01  0.51100000000E-03 0. -1.
        -11    1    3    3    0    0  0.11954633594E+02  0.12339288674E+02 -0.26001061664E+02  0.31164507333E+02  0.51100000000E-03 0.  1.
         12    1    3    3    0    0  0.86997627635E+01  0.30388995552E+01 -0.72344083857E+01  0.11715692354E+02  0.00000000000E+00 0. -1.
</event>
<event>
 7    1  0.9175399E-010  0.4778727E+02  0.7816164E-02  0.1312668E+00
        -11   -1    0    0    0    0  0.00000000000E+00  0.00000000000E+00  0.45593999997E+02  0.45594000000E+02  0.51100000000E-03 0. -1.
         11   -1    0    0    0    0 -0.00000000000E+00 -0.00000000000E+00 -0.45593999997E+02  0.45594000000E+02  0.51100000000E-03 0.  1.
    9900012    2    1    2    0    0 -0.21375283935E+02 -0.10174195402E+02  0.36375902272E+02  0.47787270956E+02  0.19999999599E+02 0.  0.
        -12    1    1    2    0    0  0.21375283935E+02  0.10174195402E+02 -0.36375902272E+02  0.43400729044E+02  0.00000000000E+00 0.  1.
         11    1    3    3    0    0 -0.27723195773E+01 -0.57501883067E+01  0.12706295881E+02  0.14219717883E+02  0.51100000000E-03 0. -1.
        -11    1    3    3    0    0 -0.19500157975E+02 -0.24925789595E+01  0.15243152261E+02  0.24876149260E+02  0.51100000000E-03 0.  1.
        -12    1    3    3    0    0  0.89719361710E+00 -0.19314281361E+01  0.84264541301E+01  0.86914038129E+01  0.00000000000E+00 0.  1.
</event>
<event>
 7    1  0.9175399E-010  0.4778727E+02  0.7816164E-02  0.1312668E+00
        -11   -1    0    0    0    0  0.00000000000E+00  0.00000000000E+00  0.45593999997E+02  0.45594000000E+02  0.51100000000E-03 0. -1.
         11   -1    0    0    0    0 -0.00000000000E+00 -0.00000000000E+00 -0.45593999997E+02  0.45594000000E+02  0.51100000000E-03 0.  1.
    9900012    2    1    2    0    0 -0.22006424948E+02  0.29888786804E+02  0.22494460255E+02  0.47787273534E+02  0.20000011350E+02 0.  0.
        -12    1    1    2    0    0  0.22006424948E+02 -0.29888786804E+02 -0.22494460255E+02  0.43400726466E+02  0.00000000000E+00 0.  1.
         11    1    3    3    0    0 -0.53554776427E+01  0.42532177754E+01  0.11220097464E+02  0.13140075707E+02  0.51100000000E-03 0. -1.
        -11    1    3    3    0    0 -0.82325866684E+01  0.21774846661E+02  0.62175712583E+01  0.24095178417E+02  0.51100000000E-03 0.  1.
        -12    1    3    3    0    0 -0.84183606366E+01  0.38607223683E+01  0.50567915331E+01  0.10552019410E+02  0.00000000000E+00 0.  1.
</event>
<event>
 7    1  0.9175399E-010  0.4778727E+02  0.7816164E-02  0.1312668E+00
        -11   -1    0    0    0    0  0.00000000000E+00  0.00000000000E+00  0.45593999997E+02  0.45594000000E+02  0.51100000000E-03 0. -1.
         11   -1    0    0    0    0 -0.00000000000E+00 -0.00000000000E+00 -0.45593999997E+02  0.45594000000E+02  0.51100000000E-03 0.  1.
    9900012    2    1    2    0    0 -0.44064591893E+01  0.16314585517E+02 -0.39975505189E+02  0.47787267307E+02  0.19999982959E+02 0.  0.
         12    1    1    2    0    0  0.44064591893E+01 -0.16314585517E+02  0.39975505189E+02  0.43400732693E+02  0.00000000000E+00 0. -1.
         11    1    3    3    0    0  0.51983658073E+00  0.10178946509E+02 -0.63797486342E+01  0.12024241141E+02  0.51100000000E-03 0. -1.
        -11    1    3    3    0    0 -0.60716161287E+01  0.15552997354E+01 -0.10830385830E+02  0.12513222493E+02  0.51100000000E-03 0.  1.
         12    1    3    3    0    0  0.11453203587E+01  0.45803392724E+01 -0.22765370725E+02  0.23249803673E+02  0.00000000000E+00 0. -1.
</event>
<event>
 7    1  0.9175399E-010  0.4778727E+02  0.7816164E-02  0.1312668E+00
        -11   -1    0    0    0    0  0.00000000000E+00  0.00000000000E+00  0.45593999997E+02  0.45594000000E+02  0.51100000000E-03 0. -1.
         11   -1    0    0    0    0 -0.00000000000E+00 -0.00000000000E+00 -0.45593999997E+02  0.45594000000E+02  0.51100000000E-03 0.  1.
    9900012    2    1    2    0    0  0.81553567412E+01 -0.32567877089E+02 -0.27503579618E+02  0.47787270127E+02  0.19999995819E+02 0.  0.
         12    1    1    2    0    0 -0.81553567412E+01  0.32567877089E+02  0.27503579618E+02  0.43400729873E+02  0.00000000000E+00 0. -1.
         11    1    3    3    0    0 -0.44456508494E+01 -0.27262845309E+01 -0.77821550505E+01  0.93679440812E+01  0.51100000000E-03 0. -1.
        -11    1    3    3    0    0  0.65844000025E+01 -0.22684512816E+02 -0.14031176509E+02  0.27473903246E+02  0.51100000000E-03 0.  1.
        -12    1    3    3    0    0  0.60166075880E+01 -0.71570797420E+01 -0.56902480583E+01  0.10945422800E+02  0.00000000000E+00 0.  1.
</event>
<event>
 7    1  0.9175399E-010  0.4778727E+02  0.7816164E-02  0.1312668E+00
        -11   -1    0    0    0    0  0.00000000000E+00  0.00000000000E+00  0.45593999997E+02  0.45594000000E+02  0.51100000000E-03 0. -1.
         11   -1    0    0    0    0 -0.00000000000E+00 -0.00000000000E+00 -0.45593999997E+02  0.45594000000E+02  0.51100000000E-03 0.  1.
    9900012    2    1    2    0    0  0.66894503377E+01 -0.28267071479E+02 -0.32246659230E+02  0.47787272963E+02  0.20000008750E+02 0.  0.
         12    1    1    2    0    0 -0.66894503377E+01  0.28267071479E+02  0.32246659230E+02  0.43400727037E+02  0.00000000000E+00 0. -1.
         11    1    3    3    0    0  0.51031826893E+01 -0.32069828407E+01 -0.18229322213E+01  0.62968479929E+01  0.51100000000E-03 0. -1.
        -11    1    3    3    0    0  0.90243399585E+00 -0.57240417150E+01 -0.16949742487E+02  0.17912923026E+02  0.51100000000E-03 0.  1.
        -12    1    3    3    0    0  0.68383365252E+00 -0.19336046924E+02 -0.13473984521E+02  0.23577501945E+02  0.00000000000E+00 0.  1.
</event>
<event>
 7    1  0.1015668E-009  0.4778727E+02  0.7816164E-02  0.1312668E+00
        -11   -1    0    0    0    0  0.00000000000E+00  0.00000000000E+00  0.45593999997E+02  0.45594000000E+02  0.51100000000E-03 0. -1.
         11   -1    0    0    0    0 -0.00000000000E+00 -0.00000000000E+00 -0.45593999997E+02  0.45594000000E+02  0.51100000000E-03 0.  1.
    9900012    2    1    2    0    0  0.23632834252E+01  0.11054924217E+02 -0.41902586395E+02  0.47787271843E+02  0.20000003639E+02 0.  0.
         12    1    1    2    0    0 -0.23632834252E+01 -0.11054924217E+02  0.41902586395E+02  0.43400728157E+02  0.00000000000E+00 0. -1.
         11    1    3    3    0    0  0.10831554191E+01  0.12895048419E+01  0.19282800280E+01  0.25601391616E+01  0.51100000000E-03 0. -1.
        -11    1    3    3    0    0 -0.63899594103E+00  0.90136082185E+01 -0.37288733450E+02  0.38367995667E+02  0.51100000000E-03 0.  1.
         12    1    3    3    0    0  0.19191239471E+01  0.75181115626E+00 -0.65421329730E+01  0.68591370140E+01  0.00000000000E+00 0. -1.
</event>
<event>
 7    1  0.9175399E-010  0.4778727E+02  0.7816164E-02  0.1312668E+00
        -11   -1    0    0    0    0  0.00000000000E+00  0.00000000000E+00  0.45593999997E+02  0.45594000000E+02  0.51100000000E-03 0. -1.
         11   -1    0    0    0    0 -0.00000000000E+00 -0.00000000000E+00 -0.45593999997E+02  0.45594000000E+02  0.51100000000E-03 0.  1.
    9900012    2    1    2    0    0 -0.15670195224E+02 -0.16657587854E+02  0.36886213726E+02  0.47787274033E+02  0.20000013624E+02 0.  0.
        -12    1    1    2    0    0  0.15670195224E+02  0.16657587854E+02 -0.36886213726E+02  0.43400725967E+02  0.00000000000E+00 0.  1.
         11    1    3    3    0    0 -0.14086504098E+02 -0.70355894965E+01  0.26214299949E+02  0.30579709602E+02  0.51100000000E-03 0. -1.
        -11    1    3    3    0    0 -0.24345783075E-02 -0.24279301705E+01  0.94303233625E+01  0.97378565312E+01  0.51100000000E-03 0.  1.
         12    1    3    3    0    0 -0.15812565477E+01 -0.71940681869E+01  0.12415904144E+01  0.74697078996E+01  0.00000000000E+00 0. -1.
</event>
<event>
 7    1  0.9175399E-010  0.4778726E+02  0.7816164E-02  0.1312668E+00
        -11   -1    0    0    0    0  0.00000000000E+00  0.00000000000E+00  0.45593999997E+02  0.45594000000E+02  0.51100000000E-03 0. -1.
         11   -1    0    0    0    0 -0.00000000000E+00 -0.00000000000E+00 -0.45593999997E+02  0.45594000000E+02  0.51100000000E-03 0.  1.
    9900012    2    1    2    0    0  0.13601230750E+02  0.27881028494E+02 -0.30352576603E+02  0.47787261133E+02  0.19999954810E+02 0.  0.
         12    1    1    2    0    0 -0.13601230750E+02 -0.27881028494E+02  0.30352576603E+02  0.43400738867E+02  0.00000000000E+00 0. -1.
         11    1    3    3    0    0  0.18752085753E+01  0.18006112617E+02 -0.22536446704E+02  0.28907229703E+02  0.51100000000E-03 0. -1.
        -11    1    3    3    0    0  0.18387979488E+01  0.36331640868E+01 -0.56880615682E+01  0.69953630244E+01  0.51100000000E-03 0.  1.
         12    1    3    3    0    0  0.98872242256E+01  0.62417517904E+01 -0.21280683300E+01  0.11884668406E+02  0.00000000000E+00 0. -1.
</event>
<event>
 7    1  0.9175399E-010  0.4778727E+02  0.7816164E-02  0.1312668E+00
        -11   -1    0    0    0    0  0.00000000000E+00  0.00000000000E+00  0.45593999997E+02  0.45594000000E+02  0.51100000000E-03 0. -1.
         11   -1    0    0    0    0 -0.00000000000E+00 -0.00000000000E+00 -0.45593999997E+02  0.45594000000E+02  0.51100000000E-03 0.  1.
    9900012    2    1    2    0    0  0.27066224984E+02 -0.44988685826E+01  0.33627409056E+02  0.47787274278E+02  0.20000014744E+02 0.  0.
        -12    1    1    2    0    0 -0.27066224984E+02  0.44988685826E+01 -0.33627409056E+02  0.43400725722E+02  0.00000000000E+00 0.  1.
         11    1    3    3    0    0  0.65580963997E+01  0.53655296035E+01  0.14985595609E+02  0.17215272647E+02  0.51100000000E-03 0. -1.
        -11    1    3    3    0    0  0.15196353714E+01  0.56020817626E+00 -0.46778774797E+00  0.16858085600E+01  0.51100000000E-03 0.  1.
         12    1    3    3    0    0  0.18988493213E+02 -0.10424606362E+02  0.19109601195E+02  0.28886193071E+02  0.00000000000E+00 0. -1.
</event>
<event>
 7    1  0.9175399E-010  0.4778727E+02  0.7816164E-02  0.1312668E+00
        -11   -1    0    0    0    0  0.00000000000E+00  0.00000000000E+00  0.45593999997E+02  0.45594000000E+02  0.51100000000E-03 0. -1.
         11   -1    0    0    0    0 -0.00000000000E+00 -0.00000000000E+00 -0.45593999997E+02  0.45594000000E+02  0.51100000000E-03 0.  1.
    9900012    2    1    2    0    0 -0.21969149487E+02  0.20077889663E+02 -0.31588890950E+02  0.47787271735E+02  0.20000003148E+02 0.  0.
         12    1    1    2    0    0  0.21969149487E+02 -0.20077889663E+02  0.31588890950E+02  0.43400728265E+02  0.00000000000E+00 0. -1.
         11    1    3    3    0    0 -0.10379245678E+02  0.43064510299E+00 -0.44089554777E+01  0.11285082398E+02  0.51100000000E-03 0. -1.
        -11    1    3    3    0    0 -0.15911847385E+01  0.88011723535E+01 -0.14566600147E+02  0.17093225084E+02  0.51100000000E-03 0.  1.
        -12    1    3    3    0    0 -0.99987190697E+01  0.10846072207E+02 -0.12613335325E+02  0.19408964253E+02  0.00000000000E+00 0.  1.
</event>
<event>
 7    1  0.9175399E-010  0.4778727E+02  0.7816164E-02  0.1312668E+00
        -11   -1    0    0    0    0  0.00000000000E+00  0.00000000000E+00  0.45593999997E+02  0.45594000000E+02  0.51100000000E-03 0. -1.
         11   -1    0    0    0    0 -0.00000000000E+00 -0.00000000000E+00 -0.45593999997E+02  0.45594000000E+02  0.51100000000E-03 0.  1.
    9900012    2    1    2    0    0  0.42005530199E+02  0.38053829042E+00 -0.10909361115E+02  0.47787268018E+02  0.19999986199E+02 0.  0.
         12    1    1    2    0    0 -0.42005530199E+02 -0.38053829042E+00  0.10909361115E+02  0.43400731982E+02  0.00000000000E+00 0. -1.
         11    1    3    3    0    0  0.19969270883E+02 -0.33477224556E+01  0.34867459276E+00  0.20250940706E+02  0.51100000000E-03 0. -1.
        -11    1    3    3    0    0  0.31424249147E+01  0.29878644832E+01 -0.68724591789E+01  0.81260607887E+01  0.51100000000E-03 0.  1.
        -12    1    3    3    0    0  0.18893834401E+02  0.74039626286E+00 -0.43855765285E+01  0.19410266523E+02  0.00000000000E+00 0.  1.
</event>
<event>
 7    1  0.1031552E-009  0.4778727E+02  0.7816164E-02  0.1312668E+00
        -11   -1    0    0    0    0  0.00000000000E+00  0.00000000000E+00  0.45593999997E+02  0.45594000000E+02  0.51100000000E-03 0. -1.
         11   -1    0    0    0    0 -0.00000000000E+00 -0.00000000000E+00 -0.45593999997E+02  0.45594000000E+02  0.51100000000E-03 0.  1.
    9900012    2    1    2    0    0 -0.37765711665E+01 -0.24681451277E+02 -0.35499109292E+02  0.47787270888E+02  0.19999999285E+02 0.  0.
         12    1    1    2    0    0  0.37765711665E+01  0.24681451277E+02  0.35499109292E+02  0.43400729112E+02  0.00000000000E+00 0. -1.
         11    1    3    3    0    0  0.47052643174E+01 -0.11225629459E+02 -0.16707048901E+02  0.20670746293E+02  0.51100000000E-03 0. -1.
        -11    1    3    3    0    0 -0.74752403858E+01 -0.79033379244E+01 -0.18505645100E+02  0.21466272848E+02  0.51100000000E-03 0.  1.
         12    1    3    3    0    0 -0.10065950981E+01 -0.55524838941E+01 -0.28641529142E+00  0.56502517470E+01  0.00000000000E+00 0. -1.
</event>
<event>
 7    1  0.9175399E-010  0.4778724E+02  0.7816164E-02  0.1312668E+00
        -11   -1    0    0    0    0  0.00000000000E+00  0.00000000000E+00  0.45593999997E+02  0.45594000000E+02  0.51100000000E-03 0. -1.
         11   -1    0    0    0    0 -0.00000000000E+00 -0.00000000000E+00 -0.45593999997E+02  0.45594000000E+02  0.51100000000E-03 0.  1.
    9900012    2    1    2    0    0 -0.29492638585E+02  0.13967705263E+02 -0.28613168024E+02  0.47787240728E+02  0.19999861775E+02 0.  0.
         12    1    1    2    0    0  0.29492638585E+02 -0.13967705263E+02  0.28613168024E+02  0.43400759272E+02  0.00000000000E+00 0. -1.
         11    1    3    3    0    0 -0.22560670318E+02  0.63424998031E+01 -0.10326973550E+02  0.25609715577E+02  0.51100000000E-03 0. -1.
        -11    1    3    3    0    0  0.14771351071E+01  0.61458867994E+00 -0.23719657577E+01  0.28610958018E+01  0.51100000000E-03 0.  1.
         12    1    3    3    0    0 -0.84091033744E+01  0.70106167797E+01 -0.15914228716E+02  0.19316429349E+02  0.00000000000E+00 0. -1.
</event>
<event>
 7    1  0.9175399E-010  0.4778727E+02  0.7816164E-02  0.1312668E+00
        -11   -1    0    0    0    0  0.00000000000E+00  0.00000000000E+00  0.45593999997E+02  0.45594000000E+02  0.51100000000E-03 0.  1.
         11   -1    0    0    0    0 -0.00000000000E+00 -0.00000000000E+00 -0.45593999997E+02  0.45594000000E+02  0.51100000000E-03 0. -1.
    9900012    2    1    2    0    0  0.28086536431E+02 -0.42664677066E+01 -0.32811086140E+02  0.47787266722E+02  0.19999980291E+02 0.  0.
         12    1    1    2    0    0 -0.28086536431E+02  0.42664677066E+01  0.32811086140E+02  0.43400733278E+02  0.00000000000E+00 0. -1.
         11    1    3    3    0    0  0.75936041146E+01 -0.40637075152E+01 -0.22333409866E+02  0.23936535646E+02  0.51100000000E-03 0.  1.
        -11    1    3    3    0    0  0.75859998447E+01 -0.16627642431E+01 -0.11305706673E+01  0.78479531641E+01  0.51100000000E-03 0. -1.
        -12    1    3    3    0    0  0.12906932472E+02  0.14600040517E+01 -0.93471056063E+01  0.16002777911E+02  0.00000000000E+00 0.  1.
</event>
<event>
 7    1  0.1698146E-009  0.4778727E+02  0.7816164E-02  0.1312668E+00
        -11   -1    0    0    0    0  0.00000000000E+00  0.00000000000E+00  0.45593999997E+02  0.45594000000E+02  0.51100000000E-03 0. -1.
         11   -1    0    0    0    0 -0.00000000000E+00 -0.00000000000E+00 -0.45593999997E+02  0.45594000000E+02  0.51100000000E-03 0.  1.
    9900012    2    1    2    0    0  0.46057506981E+00 -0.22109055545E+02 -0.37344351385E+02  0.47787273660E+02  0.20000011926E+02 0.  0.
         12    1    1    2    0    0 -0.46057506981E+00  0.22109055545E+02  0.37344351385E+02  0.43400726340E+02  0.00000000000E+00 0. -1.
         11    1    3    3    0    0  0.38489619514E+01 -0.24659040353E+01 -0.11297510363E+00  0.45725216729E+01  0.51100000000E-03 0. -1.
        -11    1    3    3    0    0  0.53047221100E+00 -0.17263667252E+02 -0.27808673939E+02  0.32735881754E+02  0.51100000000E-03 0.  1.
         12    1    3    3    0    0 -0.39188590926E+01 -0.23794842579E+01 -0.94227023424E+01  0.10478870233E+02  0.00000000000E+00 0. -1.
</event>
<event>
 7    1  0.1056805E-009  0.4778727E+02  0.7816164E-02  0.1312668E+00
        -11   -1    0    0    0    0  0.00000000000E+00  0.00000000000E+00  0.45593999997E+02  0.45594000000E+02  0.51100000000E-03 0. -1.
         11   -1    0    0    0    0 -0.00000000000E+00 -0.00000000000E+00 -0.45593999997E+02  0.45594000000E+02  0.51100000000E-03 0.  1.
    9900012    2    1    2    0    0 -0.31392139739E+02 -0.41649415039E+01 -0.29678448374E+02  0.47787268750E+02  0.19999989540E+02 0.  0.
         12    1    1    2    0    0  0.31392139739E+02  0.41649415039E+01  0.29678448374E+02  0.43400731250E+02  0.00000000000E+00 0. -1.
         11    1    3    3    0    0 -0.59097824506E-01  0.45628547706E+00  0.21675420565E+01  0.22158356928E+01  0.51100000000E-03 0. -1.
        -11    1    3    3    0    0 -0.17725024532E+02  0.18731615723E+00 -0.21216876070E+02  0.27647195381E+02  0.51100000000E-03 0.  1.
         12    1    3    3    0    0 -0.13608017383E+02 -0.48085431382E+01 -0.10629114360E+02  0.17924237676E+02  0.00000000000E+00 0. -1.
</event>
<event>
 7    1  0.9175399E-010  0.4778727E+02  0.7816164E-02  0.1312668E+00
        -11   -1    0    0    0    0  0.00000000000E+00  0.00000000000E+00  0.45593999997E+02  0.45594000000E+02  0.51100000000E-03 0. -1.
         11   -1    0    0    0    0 -0.00000000000E+00 -0.00000000000E+00 -0.45593999997E+02  0.45594000000E+02  0.51100000000E-03 0.  1.
    9900012    2    1    2    0    0 -0.43251141971E+01  0.31009340812E+02  0.30055574130E+02  0.47787269975E+02  0.19999995122E+02 0.  0.
        -12    1    1    2    0    0  0.43251141971E+01 -0.31009340812E+02 -0.30055574130E+02  0.43400730025E+02  0.00000000000E+00 0.  1.
         11    1    3    3    0    0  0.96189597254E+00 -0.14787292883E+00  0.98338641306E+01  0.98819023606E+01  0.51100000000E-03 0. -1.
        -11    1    3    3    0    0 -0.27759063035E+01  0.91756780925E+01  0.36295914577E+01  0.10250495533E+02  0.51100000000E-03 0.  1.
         12    1    3    3    0    0 -0.25111038661E+01  0.21981535649E+02  0.16592118542E+02  0.27654872081E+02  0.00000000000E+00 0. -1.
</event>
<event>
 7    1  0.9175399E-010  0.4778732E+02  0.7816164E-02  0.1312668E+00
        -11   -1    0    0    0    0  0.00000000000E+00  0.00000000000E+00  0.45593999997E+02  0.45594000000E+02  0.51100000000E-03 0. -1.
         11   -1    0    0    0    0 -0.00000000000E+00 -0.00000000000E+00 -0.45593999997E+02  0.45594000000E+02  0.51100000000E-03 0.  1.
    9900012    2    1    2    0    0 -0.12722508171E+02  0.10176205458E+02  0.40226881720E+02  0.47787315851E+02  0.20000204291E+02 0.  0.
        -12    1    1    2    0    0  0.12722508171E+02 -0.10176205458E+02 -0.40226881720E+02  0.43400684149E+02  0.00000000000E+00 0.  1.
         11    1    3    3    0    0 -0.81100868100E+01  0.16256637899E+01  0.13222784987E+02  0.15596741131E+02  0.51100000000E-03 0. -1.
        -11    1    3    3    0    0 -0.17854313686E+01 -0.34490289369E+01  0.21310831471E+01  0.44300204763E+01  0.51100000000E-03 0.  1.
        -12    1    3    3    0    0 -0.28269899927E+01  0.11999570605E+02  0.24873013585E+02  0.27760554244E+02  0.00000000000E+00 0.  1.
</event>
<event>
 7    1  0.9175399E-010  0.4778729E+02  0.7816164E-02  0.1312668E+00
        -11   -1    0    0    0    0  0.00000000000E+00  0.00000000000E+00  0.45593999997E+02  0.45594000000E+02  0.51100000000E-03 0.  1.
         11   -1    0    0    0    0 -0.00000000000E+00 -0.00000000000E+00 -0.45593999997E+02  0.45594000000E+02  0.51100000000E-03 0. -1.
    9900012    2    1    2    0    0  0.13978561665E+02  0.29146321381E+02  0.28960552178E+02  0.47787287809E+02  0.20000076434E+02 0.  0.
        -12    1    1    2    0    0 -0.13978561665E+02 -0.29146321381E+02 -0.28960552178E+02  0.43400712191E+02  0.00000000000E+00 0.  1.
         11    1    3    3    0    0  0.13906553159E+02  0.11965451816E+02  0.18015904257E+02  0.25712585720E+02  0.51100000000E-03 0. -1.
        -11    1    3    3    0    0 -0.16359071592E+01  0.45791753706E+00 -0.46144714000E+00  0.17603449742E+01  0.51100000000E-03 0.  1.
         12    1    3    3    0    0  0.17079156651E+01  0.16722952028E+02  0.11406095061E+02  0.20314357115E+02  0.00000000000E+00 0. -1.
</event>
<event>
 7    1  0.9175399E-010  0.4778728E+02  0.7816164E-02  0.1312668E+00
        -11   -1    0    0    0    0  0.00000000000E+00  0.00000000000E+00  0.45593999997E+02  0.45594000000E+02  0.51100000000E-03 0. -1.
         11   -1    0    0    0    0 -0.00000000000E+00 -0.00000000000E+00 -0.45593999997E+02  0.45594000000E+02  0.51100000000E-03 0.  1.
    9900012    2    1    2    0    0 -0.25097319098E+02 -0.30253795931E+02 -0.18397144348E+02  0.47787279795E+02  0.20000039899E+02 0.  0.
         12    1    1    2    0    0  0.25097319098E+02  0.30253795931E+02  0.18397144348E+02  0.43400720205E+02  0.00000000000E+00 0. -1.
         11    1    3    3    0    0 -0.49748846309E+01  0.11069889618E+01 -0.17668904711E+01  0.53941453309E+01  0.51100000000E-03 0. -1.
        -11    1    3    3    0    0 -0.15511021220E+02 -0.29091388701E+02 -0.17263591889E+02  0.37214678301E+02  0.51100000000E-03 0.  1.
        -12    1    3    3    0    0 -0.46114132464E+01 -0.22693961918E+01  0.63333801219E+00  0.51784561640E+01  0.00000000000E+00 0.  1.
</event>
<event>
 7    1  0.9175399E-010  0.4778727E+02  0.7816164E-02  0.1312668E+00
        -11   -1    0    0    0    0  0.00000000000E+00  0.00000000000E+00  0.45593999997E+02  0.45594000000E+02  0.51100000000E-03 0. -1.
         11   -1    0    0    0    0 -0.00000000000E+00 -0.00000000000E+00 -0.45593999997E+02  0.45594000000E+02  0.51100000000E-03 0.  1.
    9900012    2    1    2    0    0 -0.12413471373E+02  0.18696825554E+02 -0.37147781348E+02  0.47787271707E+02  0.20000003019E+02 0.  0.
         12    1    1    2    0    0  0.12413471373E+02 -0.18696825554E+02  0.37147781348E+02  0.43400728293E+02  0.00000000000E+00 0. -1.
         11    1    3    3    0    0  0.87102482050E+00  0.76601646675E+01 -0.10821253360E+02  0.13286697540E+02  0.51100000000E-03 0. -1.
        -11    1    3    3    0    0 -0.62679038280E+01 -0.22911068964E+01 -0.47685469563E+01  0.82021234777E+01  0.51100000000E-03 0.  1.
        -12    1    3    3    0    0 -0.70165923653E+01  0.13327767783E+02 -0.21557981032E+02  0.26298450689E+02  0.00000000000E+00 0.  1.
</event>
<event>
 7    1  0.9175399E-010  0.4778726E+02  0.7816164E-02  0.1312668E+00
        -11   -1    0    0    0    0  0.00000000000E+00  0.00000000000E+00  0.45593999997E+02  0.45594000000E+02  0.51100000000E-03 0. -1.
         11   -1    0    0    0    0 -0.00000000000E+00 -0.00000000000E+00 -0.45593999997E+02  0.45594000000E+02  0.51100000000E-03 0.  1.
    9900012    2    1    2    0    0 -0.13502936788E+02  0.24853736277E+02 -0.32917877257E+02  0.47787260929E+02  0.19999953879E+02 0.  0.
         12    1    1    2    0    0  0.13502936788E+02 -0.24853736277E+02  0.32917877257E+02  0.43400739071E+02  0.00000000000E+00 0. -1.
         11    1    3    3    0    0 -0.20325381061E+01 -0.38550573516E+00 -0.98685380829E+00  0.22920965348E+01  0.51100000000E-03 0. -1.
        -11    1    3    3    0    0 -0.60679680255E+01  0.56248913184E+01 -0.80922650019E+00  0.83135122597E+01  0.51100000000E-03 0.  1.
        -12    1    3    3    0    0 -0.54024306562E+01  0.19614350694E+02 -0.31121796948E+02  0.37181652134E+02  0.00000000000E+00 0.  1.
</event>
<event>
 7    1  0.9175399E-010  0.4778727E+02  0.7816164E-02  0.1312668E+00
        -11   -1    0    0    0    0  0.00000000000E+00  0.00000000000E+00  0.45593999997E+02  0.45594000000E+02  0.51100000000E-03 0. -1.
         11   -1    0    0    0    0 -0.00000000000E+00 -0.00000000000E+00 -0.45593999997E+02  0.45594000000E+02  0.51100000000E-03 0.  1.
    9900012    2    1    2    0    0 -0.11975599343E+02  0.15275343807E+02  0.38818452617E+02  0.47787269919E+02  0.19999994867E+02 0.  0.
        -12    1    1    2    0    0  0.11975599343E+02 -0.15275343807E+02 -0.38818452617E+02  0.43400730081E+02  0.00000000000E+00 0.  1.
         11    1    3    3    0    0 -0.30776804461E+01 -0.38067753585E+01  0.11061874336E+02  0.12096640841E+02  0.51100000000E-03 0. -1.
        -11    1    3    3    0    0 -0.20215574004E+00  0.86769424316E+01  0.85838863584E+01  0.12207100482E+02  0.51100000000E-03 0.  1.
         12    1    3    3    0    0 -0.86957631570E+01  0.10405176733E+02  0.19172691923E+02  0.23483528596E+02  0.00000000000E+00 0. -1.
</event>
<event>
 7    1  0.9175399E-010  0.4778726E+02  0.7816164E-02  0.1312668E+00
        -11   -1    0    0    0    0  0.00000000000E+00  0.00000000000E+00  0.45593999997E+02  0.45594000000E+02  0.51100000000E-03 0. -1.
         11   -1    0    0    0    0 -0.00000000000E+00 -0.00000000000E+00 -0.45593999997E+02  0.45594000000E+02  0.51100000000E-03 0.  1.
    9900012    2    1    2    0    0 -0.30998259746E+02 -0.29215352206E+02  0.83183956998E+01  0.47787255550E+02  0.19999929356E+02 0.  0.
        -12    1    1    2    0    0  0.30998259746E+02  0.29215352206E+02 -0.83183956998E+01  0.43400744450E+02  0.00000000000E+00 0.  1.
         11    1    3    3    0    0 -0.19259626539E+02 -0.24610318925E+02  0.11566428881E+02  0.33322414219E+02  0.51100000000E-03 0. -1.
        -11    1    3    3    0    0 -0.19148697141E+01 -0.35055167903E+01 -0.21014143851E+01  0.45134595011E+01  0.51100000000E-03 0.  1.
         12    1    3    3    0    0 -0.98237634927E+01 -0.10995164902E+01 -0.11466187966E+01  0.99513818305E+01  0.00000000000E+00 0. -1.
</event>
<event>
 7    1  0.9879689E-010  0.4778728E+02  0.7816164E-02  0.1312668E+00
        -11   -1    0    0    0    0  0.00000000000E+00  0.00000000000E+00  0.45593999997E+02  0.45594000000E+02  0.51100000000E-03 0. -1.
         11   -1    0    0    0    0 -0.00000000000E+00 -0.00000000000E+00 -0.45593999997E+02  0.45594000000E+02  0.51100000000E-03 0.  1.
    9900012    2    1    2    0    0  0.36303168361E+02  0.95382883026E+01 -0.21788156388E+02  0.47787277246E+02  0.20000028275E+02 0.  0.
         12    1    1    2    0    0 -0.36303168361E+02 -0.95382883026E+01  0.21788156388E+02  0.43400722754E+02  0.00000000000E+00 0. -1.
         11    1    3    3    0    0  0.34967431494E+01  0.19035509270E+01  0.35555458714E+01  0.53378483951E+01  0.51100000000E-03 0. -1.
        -11    1    3    3    0    0  0.15065916893E+02  0.37865354636E+01 -0.14802581178E+02  0.21457775105E+02  0.51100000000E-03 0.  1.
         12    1    3    3    0    0  0.17740508318E+02  0.38482019119E+01 -0.10541121081E+02  0.20991653746E+02  0.00000000000E+00 0. -1.
</event>
<event>
 7    1  0.9175399E-010  0.4778727E+02  0.7816164E-02  0.1312668E+00
        -11   -1    0    0    0    0  0.00000000000E+00  0.00000000000E+00  0.45593999997E+02  0.45594000000E+02  0.51100000000E-03 0. -1.
         11   -1    0    0    0    0 -0.00000000000E+00 -0.00000000000E+00 -0.45593999997E+02  0.45594000000E+02  0.51100000000E-03 0.  1.
    9900012    2    1    2    0    0  0.14828526288E+02  0.25446336091E+02  0.31878234551E+02  0.47787273619E+02  0.20000011737E+02 0.  0.
        -12    1    1    2    0    0 -0.14828526288E+02 -0.25446336091E+02 -0.31878234551E+02  0.43400726381E+02  0.00000000000E+00 0.  1.
         11    1    3    3    0    0  0.10905627531E+02  0.74198034963E+01  0.46771359650E+01  0.13995063303E+02  0.51100000000E-03 0. -1.
        -11    1    3    3    0    0 -0.13967921705E+01  0.32584465229E+01  0.94668938279E+01  0.10108935707E+02  0.51100000000E-03 0.  1.
         12    1    3    3    0    0  0.53196909278E+01  0.14768086072E+02  0.17734204758E+02  0.23683274609E+02  0.00000000000E+00 0. -1.
</event>
<event>
 7    1  0.9175399E-010  0.4778728E+02  0.7816164E-02  0.1312668E+00
        -11   -1    0    0    0    0  0.00000000000E+00  0.00000000000E+00  0.45593999997E+02  0.45594000000E+02  0.51100000000E-03 0. -1.
         11   -1    0    0    0    0 -0.00000000000E+00 -0.00000000000E+00 -0.45593999997E+02  0.45594000000E+02  0.51100000000E-03 0.  1.
    9900012    2    1    2    0    0 -0.48830205913E+01  0.77028007534E+01 -0.42431651576E+02  0.47787284741E+02  0.20000062449E+02 0.  0.
         12    1    1    2    0    0  0.48830205913E+01 -0.77028007534E+01  0.42431651576E+02  0.43400715259E+02  0.00000000000E+00 0. -1.
         11    1    3    3    0    0 -0.22162178622E+01 -0.50311534106E+01 -0.10952413112E+02  0.12254773743E+02  0.51100000000E-03 0. -1.
        -11    1    3    3    0    0 -0.23035505236E+01 -0.13317114701E+00 -0.11361237706E+01  0.25719364402E+01  0.51100000000E-03 0.  1.
         12    1    3    3    0    0 -0.36325220553E+00  0.12867125311E+02 -0.30343114693E+02  0.32960574559E+02  0.00000000000E+00 0. -1.
</event>
<event>
 7    1  0.9175399E-010  0.4778728E+02  0.7816164E-02  0.1312668E+00
        -11   -1    0    0    0    0  0.00000000000E+00  0.00000000000E+00  0.45593999997E+02  0.45594000000E+02  0.51100000000E-03 0. -1.
         11   -1    0    0    0    0 -0.00000000000E+00 -0.00000000000E+00 -0.45593999997E+02  0.45594000000E+02  0.51100000000E-03 0.  1.
    9900012    2    1    2    0    0  0.13056685023E+02 -0.30145843924E+02 -0.28361487152E+02  0.47787275546E+02  0.20000020525E+02 0.  0.
         12    1    1    2    0    0 -0.13056685023E+02  0.30145843924E+02  0.28361487152E+02  0.43400724454E+02  0.00000000000E+00 0. -1.
         11    1    3    3    0    0  0.72455729743E+01 -0.27536747191E+02 -0.17561280308E+02  0.33453988401E+02  0.51100000000E-03 0. -1.
        -11    1    3    3    0    0  0.72594560213E+01 -0.12049957526E+01 -0.90365332471E+01  0.11653782642E+02  0.51100000000E-03 0.  1.
        -12    1    3    3    0    0 -0.14483439728E+01 -0.14041009799E+01 -0.17636735970E+01  0.26795045030E+01  0.00000000000E+00 0.  1.
</event>
<event>
 7    1  0.9175399E-010  0.4778727E+02  0.7816164E-02  0.1312668E+00
        -11   -1    0    0    0    0  0.00000000000E+00  0.00000000000E+00  0.45593999997E+02  0.45594000000E+02  0.51100000000E-03 0. -1.
         11   -1    0    0    0    0 -0.00000000000E+00 -0.00000000000E+00 -0.45593999997E+02  0.45594000000E+02  0.51100000000E-03 0.  1.
    9900012    2    1    2    0    0 -0.32347456892E+02 -0.20661690784E+02  0.20257343117E+02  0.47787269780E+02  0.19999994237E+02 0.  0.
        -12    1    1    2    0    0  0.32347456892E+02  0.20661690784E+02 -0.20257343117E+02  0.43400730220E+02  0.00000000000E+00 0.  1.
         11    1    3    3    0    0 -0.58695634675E+01 -0.32248417185E+01  0.57387657191E+01  0.88195698108E+01  0.51100000000E-03 0. -1.
        -11    1    3    3    0    0 -0.22282231625E+02 -0.91434602202E+01  0.16839194451E+02  0.29388078893E+02  0.51100000000E-03 0.  1.
        -12    1    3    3    0    0 -0.41956617992E+01 -0.82933888452E+01 -0.23206170528E+01  0.95796210768E+01  0.00000000000E+00 0.  1.
</event>
<event>
 7    1  0.9175399E-010  0.4778727E+02  0.7816164E-02  0.1312668E+00
        -11   -1    0    0    0    0  0.00000000000E+00  0.00000000000E+00  0.45593999997E+02  0.45594000000E+02  0.51100000000E-03 0.  1.
         11   -1    0    0    0    0 -0.00000000000E+00 -0.00000000000E+00 -0.45593999997E+02  0.45594000000E+02  0.51100000000E-03 0. -1.
    9900012    2    1    2    0    0 -0.37765082375E+02 -0.68902745453E+01  0.20247121133E+02  0.47787271386E+02  0.20000001555E+02 0.  0.
        -12    1    1    2    0    0  0.37765082375E+02  0.68902745453E+01 -0.20247121133E+02  0.43400728614E+02  0.00000000000E+00 0.  1.
         11    1    3    3    0    0 -0.25861727050E+02  0.24783392976E+01  0.67256456305E+01  0.26836642881E+02  0.51100000000E-03 0. -1.
        -11    1    3    3    0    0 -0.66370370786E+01 -0.75224885813E+01  0.63855841061E+01  0.11891752616E+02  0.51100000000E-03 0.  1.
         12    1    3    3    0    0 -0.52663182458E+01 -0.18461252615E+01  0.71358913965E+01  0.90588758889E+01  0.00000000000E+00 0. -1.
</event>
<event>
 7    1  0.9175399E-010  0.4778727E+02  0.7816164E-02  0.1312668E+00
        -11   -1    0    0    0    0  0.00000000000E+00  0.00000000000E+00  0.45593999997E+02  0.45594000000E+02  0.51100000000E-03 0.  1.
         11   -1    0    0    0    0 -0.00000000000E+00 -0.00000000000E+00 -0.45593999997E+02  0.45594000000E+02  0.51100000000E-03 0. -1.
    9900012    2    1    2    0    0 -0.38549679995E+02 -0.57303017722E+01 -0.19097357686E+02  0.47787271243E+02  0.20000000903E+02 0.  0.
         12    1    1    2    0    0  0.38549679995E+02  0.57303017722E+01  0.19097357686E+02  0.43400728757E+02  0.00000000000E+00 0. -1.
         11    1    3    3    0    0 -0.68611735332E+01 -0.69500933043E+01 -0.11063298015E+02  0.14757237628E+02  0.51100000000E-03 0. -1.
        -11    1    3    3    0    0 -0.15321028864E+02  0.12723549299E+01 -0.16521768132E+01  0.15462292877E+02  0.51100000000E-03 0.  1.
         12    1    3    3    0    0 -0.16367477597E+02 -0.52563397810E-01 -0.63818828584E+01  0.17567740738E+02  0.00000000000E+00 0. -1.
</event>
<event>
 7    1  0.9175399E-010  0.4778727E+02  0.7816164E-02  0.1312668E+00
        -11   -1    0    0    0    0  0.00000000000E+00  0.00000000000E+00  0.45593999997E+02  0.45594000000E+02  0.51100000000E-03 0. -1.
         11   -1    0    0    0    0 -0.00000000000E+00 -0.00000000000E+00 -0.45593999997E+02  0.45594000000E+02  0.51100000000E-03 0.  1.
    9900012    2    1    2    0    0  0.19292123615E+02  0.23805997573E+02  0.30736163028E+02  0.47787271070E+02  0.20000000117E+02 0.  0.
        -12    1    1    2    0    0 -0.19292123615E+02 -0.23805997573E+02 -0.30736163028E+02  0.43400728930E+02  0.00000000000E+00 0.  1.
         11    1    3    3    0    0  0.54551993827E+01  0.83164544749E+01  0.39867520138E+00  0.99539719467E+01  0.51100000000E-03 0. -1.
        -11    1    3    3    0    0 -0.65817808486E+00  0.40961426885E+01  0.62006706669E+01  0.74605562994E+01  0.51100000000E-03 0.  1.
         12    1    3    3    0    0  0.14495102317E+02  0.11393400409E+02  0.24136817159E+02  0.30372742824E+02  0.00000000000E+00 0. -1.
</event>
<event>
 7    1  0.9175399E-010  0.4778725E+02  0.7816164E-02  0.1312668E+00
        -11   -1    0    0    0    0  0.00000000000E+00  0.00000000000E+00  0.45593999997E+02  0.45594000000E+02  0.51100000000E-03 0. -1.
         11   -1    0    0    0    0 -0.00000000000E+00 -0.00000000000E+00 -0.45593999997E+02  0.45594000000E+02  0.51100000000E-03 0.  1.
    9900012    2    1    2    0    0 -0.35318420472E+02 -0.81250648081E+01 -0.23879233306E+02  0.47787247864E+02  0.19999894309E+02 0.  0.
         12    1    1    2    0    0  0.35318420472E+02  0.81250648081E+01  0.23879233306E+02  0.43400752136E+02  0.00000000000E+00 0. -1.
         11    1    3    3    0    0 -0.22837091049E+02 -0.33827502159E+00 -0.21328377189E+02  0.31249749300E+02  0.51100000000E-03 0. -1.
        -11    1    3    3    0    0 -0.22179248939E+01 -0.35070761319E+00 -0.31276930958E+01  0.38502793441E+01  0.51100000000E-03 0.  1.
         12    1    3    3    0    0 -0.10263404529E+02 -0.74360821733E+01  0.57683697934E+00  0.12687219219E+02  0.00000000000E+00 0. -1.
</event>
<event>
 7    1  0.9175399E-010  0.4778727E+02  0.7816164E-02  0.1312668E+00
        -11   -1    0    0    0    0  0.00000000000E+00  0.00000000000E+00  0.45593999997E+02  0.45594000000E+02  0.51100000000E-03 0. -1.
         11   -1    0    0    0    0 -0.00000000000E+00 -0.00000000000E+00 -0.45593999997E+02  0.45594000000E+02  0.51100000000E-03 0.  1.
    9900012    2    1    2    0    0  0.54147763243E+01 -0.20545306217E+02  0.37844333402E+02  0.47787274421E+02  0.20000015393E+02 0.  0.
        -12    1    1    2    0    0 -0.54147763243E+01  0.20545306217E+02 -0.37844333402E+02  0.43400725579E+02  0.00000000000E+00 0.  1.
         11    1    3    3    0    0  0.49972709077E+01 -0.35084301742E+01  0.14399982860E+02  0.15641013568E+02  0.51100000000E-03 0. -1.
        -11    1    3    3    0    0  0.44774924690E+01 -0.89435564825E+01  0.41415928590E+01  0.10825337548E+02  0.51100000000E-03 0.  1.
        -12    1    3    3    0    0 -0.40599870523E+01 -0.80933195604E+01  0.19302757683E+02  0.21320923304E+02  0.00000000000E+00 0.  1.
</event>
<event>
 7    1  0.9175399E-010  0.4778727E+02  0.7816164E-02  0.1312668E+00
        -11   -1    0    0    0    0  0.00000000000E+00  0.00000000000E+00  0.45593999997E+02  0.45594000000E+02  0.51100000000E-03 0. -1.
         11   -1    0    0    0    0 -0.00000000000E+00 -0.00000000000E+00 -0.45593999997E+02  0.45594000000E+02  0.51100000000E-03 0.  1.
    9900012    2    1    2    0    0  0.15350388239E+02  0.21930562407E+02  0.34161954996E+02  0.47787272406E+02  0.20000006207E+02 0.  0.
        -12    1    1    2    0    0 -0.15350388239E+02 -0.21930562407E+02 -0.34161954996E+02  0.43400727594E+02  0.00000000000E+00 0.  1.
         11    1    3    3    0    0 -0.40986750115E+00  0.98535885959E+01  0.16225774092E+02  0.18987810425E+02  0.51100000000E-03 0. -1.
        -11    1    3    3    0    0  0.12289987698E+02  0.44376207319E+01  0.15039463118E+02  0.19922894532E+02  0.51100000000E-03 0.  1.
        -12    1    3    3    0    0  0.34702680414E+01  0.76393530793E+01  0.28967177860E+01  0.88765674493E+01  0.00000000000E+00 0.  1.
</event>
<event>
 7    1  0.9175399E-010  0.4778727E+02  0.7816164E-02  0.1312668E+00
        -11   -1    0    0    0    0  0.00000000000E+00  0.00000000000E+00  0.45593999997E+02  0.45594000000E+02  0.51100000000E-03 0. -1.
         11   -1    0    0    0    0 -0.00000000000E+00 -0.00000000000E+00 -0.45593999997E+02  0.45594000000E+02  0.51100000000E-03 0.  1.
    9900012    2    1    2    0    0  0.55339790123E+01 -0.61312590193E+01 -0.42607582746E+02  0.47787269957E+02  0.19999995041E+02 0.  0.
         12    1    1    2    0    0 -0.55339790123E+01  0.61312590193E+01  0.42607582746E+02  0.43400730043E+02  0.00000000000E+00 0. -1.
         11    1    3    3    0    0  0.37042417716E+01  0.36402967740E+01 -0.28925251934E+02  0.29387809843E+02  0.51100000000E-03 0. -1.
        -11    1    3    3    0    0  0.34257028284E+01 -0.22182008522E+01 -0.73810423858E+01  0.84341947957E+01  0.51100000000E-03 0.  1.
         12    1    3    3    0    0 -0.15959655877E+01 -0.75533549410E+01 -0.63012884260E+01  0.99652653176E+01  0.00000000000E+00 0. -1.
</event>
<event>
 7    1  0.9175399E-010  0.4778727E+02  0.7816164E-02  0.1312668E+00
        -11   -1    0    0    0    0  0.00000000000E+00  0.00000000000E+00  0.45593999997E+02  0.45594000000E+02  0.51100000000E-03 0. -1.
         11   -1    0    0    0    0 -0.00000000000E+00 -0.00000000000E+00 -0.45593999997E+02  0.45594000000E+02  0.51100000000E-03 0.  1.
    9900012    2    1    2    0    0 -0.82831844090E+01 -0.13039012016E+02  0.40558557461E+02  0.47787267730E+02  0.19999984888E+02 0.  0.
        -12    1    1    2    0    0  0.82831844090E+01  0.13039012016E+02 -0.40558557461E+02  0.43400732270E+02  0.00000000000E+00 0.  1.
         11    1    3    3    0    0  0.21278552549E+01 -0.55985507395E+01  0.94056835277E+01  0.11150713935E+02  0.51100000000E-03 0. -1.
        -11    1    3    3    0    0 -0.20782754609E+01  0.42306108000E+01  0.10315712717E+02  0.11341570692E+02  0.51100000000E-03 0.  1.
        -12    1    3    3    0    0 -0.83327642030E+01 -0.11671072076E+02  0.20837161216E+02  0.25294983103E+02  0.00000000000E+00 0.  1.
</event>
<event>
 7    1  0.9175399E-010  0.4778727E+02  0.7816164E-02  0.1312668E+00
        -11   -1    0    0    0    0  0.00000000000E+00  0.00000000000E+00  0.45593999997E+02  0.45594000000E+02  0.51100000000E-03 0.  1.
         11   -1    0    0    0    0 -0.00000000000E+00 -0.00000000000E+00 -0.45593999997E+02  0.45594000000E+02  0.51100000000E-03 0. -1.
    9900012    2    1    2    0    0 -0.36843800081E+02 -0.16978370826E+02 -0.15423781471E+02  0.47787265961E+02  0.19999976822E+02 0.  0.
         12    1    1    2    0    0  0.36843800081E+02  0.16978370826E+02  0.15423781471E+02  0.43400734039E+02  0.00000000000E+00 0. -1.
         11    1    3    3    0    0 -0.43245378796E+01 -0.88405228607E+01 -0.38712183774E+00  0.98491794532E+01  0.51100000000E-03 0. -1.
        -11    1    3    3    0    0 -0.14823961977E+02 -0.20227092895E+01 -0.11533987393E+02  0.18891110793E+02  0.51100000000E-03 0.  1.
        -12    1    3    3    0    0 -0.17695300224E+02 -0.61151386756E+01 -0.35026722401E+01  0.19046975714E+02  0.00000000000E+00 0.  1.
</event>
<event>
 7    1  0.9175399E-010  0.4778727E+02  0.7816164E-02  0.1312668E+00
        -11   -1    0    0    0    0  0.00000000000E+00  0.00000000000E+00  0.45593999997E+02  0.45594000000E+02  0.51100000000E-03 0.  1.
         11   -1    0    0    0    0 -0.00000000000E+00 -0.00000000000E+00 -0.45593999997E+02  0.45594000000E+02  0.51100000000E-03 0. -1.
    9900012    2    1    2    0    0 -0.41331058305E+02  0.69103013232E+01  0.11296663438E+02  0.47787271321E+02  0.20000001261E+02 0.  0.
        -12    1    1    2    0    0  0.41331058305E+02 -0.69103013232E+01 -0.11296663438E+02  0.43400728679E+02  0.00000000000E+00 0.  1.
         11    1    3    3    0    0 -0.22217969015E+02  0.48615812168E+01  0.28149844822E+01  0.22917182570E+02  0.51100000000E-03 0. -1.
        -11    1    3    3    0    0 -0.28737366343E+00  0.30668730546E+01  0.47340930041E+01  0.56480023714E+01  0.51100000000E-03 0.  1.
        -12    1    3    3    0    0 -0.18825715627E+02 -0.10181529483E+01  0.37475859521E+01  0.19222086379E+02  0.00000000000E+00 0.  1.
</event>
<event>
 7    1  0.9175399E-010  0.4778727E+02  0.7816164E-02  0.1312668E+00
        -11   -1    0    0    0    0  0.00000000000E+00  0.00000000000E+00  0.45593999997E+02  0.45594000000E+02  0.51100000000E-03 0. -1.
         11   -1    0    0    0    0 -0.00000000000E+00 -0.00000000000E+00 -0.45593999997E+02  0.45594000000E+02  0.51100000000E-03 0.  1.
    9900012    2    1    2    0    0  0.16639886247E+02  0.23203687481E+02 -0.32685261919E+02  0.47787271045E+02  0.20000000004E+02 0.  0.
         12    1    1    2    0    0 -0.16639886247E+02 -0.23203687481E+02  0.32685261919E+02  0.43400728955E+02  0.00000000000E+00 0. -1.
         11    1    3    3    0    0  0.13440635856E+02  0.64201963735E+01 -0.20433708588E+02  0.25286479799E+02  0.51100000000E-03 0. -1.
        -11    1    3    3    0    0 -0.13604924084E+01  0.12611797364E+02 -0.79336881666E+01  0.14961677063E+02  0.51100000000E-03 0.  1.
        -12    1    3    3    0    0  0.45597428002E+01  0.41716937435E+01 -0.43178651642E+01  0.75391141834E+01  0.00000000000E+00 0.  1.
</event>
<event>
 7    1  0.9175399E-010  0.4778726E+02  0.7816164E-02  0.1312668E+00
        -11   -1    0    0    0    0  0.00000000000E+00  0.00000000000E+00  0.45593999997E+02  0.45594000000E+02  0.51100000000E-03 0. -1.
         11   -1    0    0    0    0 -0.00000000000E+00 -0.00000000000E+00 -0.45593999997E+02  0.45594000000E+02  0.51100000000E-03 0.  1.
    9900012    2    1    2    0    0  0.10566306089E+02  0.29542508121E+02  0.29986954952E+02  0.47787261783E+02  0.19999957775E+02 0.  0.
        -12    1    1    2    0    0 -0.10566306089E+02 -0.29542508121E+02 -0.29986954952E+02  0.43400738217E+02  0.00000000000E+00 0.  1.
         11    1    3    3    0    0 -0.21123453714E+01  0.73438532152E+00  0.48295718214E+01  0.53222259448E+01  0.51100000000E-03 0. -1.
        -11    1    3    3    0    0 -0.14045882238E+00 -0.78604543221E+00  0.35641740383E+01  0.36525241873E+01  0.51100000000E-03 0.  1.
         12    1    3    3    0    0  0.12819110283E+02  0.29594168232E+02  0.21593209092E+02  0.38812511651E+02  0.00000000000E+00 0. -1.
</event>
<event>
 7    1  0.9175399E-010  0.4778726E+02  0.7816164E-02  0.1312668E+00
        -11   -1    0    0    0    0  0.00000000000E+00  0.00000000000E+00  0.45593999997E+02  0.45594000000E+02  0.51100000000E-03 0. -1.
         11   -1    0    0    0    0 -0.00000000000E+00 -0.00000000000E+00 -0.45593999997E+02  0.45594000000E+02  0.51100000000E-03 0.  1.
    9900012    2    1    2    0    0  0.97115290753E+01 -0.14044139259E+01 -0.42276916719E+02  0.47787264261E+02  0.19999969070E+02 0.  0.
         12    1    1    2    0    0 -0.97115290753E+01  0.14044139259E+01  0.42276916719E+02  0.43400735739E+02  0.00000000000E+00 0. -1.
         11    1    3    3    0    0  0.50368577415E+01 -0.72555263094E+01 -0.63416434157E+01  0.10873317774E+02  0.51100000000E-03 0. -1.
        -11    1    3    3    0    0  0.14548386736E+01  0.47162139426E+01 -0.23873163377E+02  0.24378005649E+02  0.51100000000E-03 0.  1.
         12    1    3    3    0    0  0.32198326602E+01  0.11348984409E+01 -0.12062109926E+02  0.12535940838E+02  0.00000000000E+00 0. -1.
</event>
<event>
 7    1  0.9175399E-010  0.4778727E+02  0.7816164E-02  0.1312668E+00
        -11   -1    0    0    0    0  0.00000000000E+00  0.00000000000E+00  0.45593999997E+02  0.45594000000E+02  0.51100000000E-03 0. -1.
         11   -1    0    0    0    0 -0.00000000000E+00 -0.00000000000E+00 -0.45593999997E+02  0.45594000000E+02  0.51100000000E-03 0.  1.
    9900012    2    1    2    0    0 -0.24954060938E+02 -0.97550616854E+01  0.34143177916E+02  0.47787274384E+02  0.20000015228E+02 0.  0.
        -12    1    1    2    0    0  0.24954060938E+02  0.97550616854E+01 -0.34143177916E+02  0.43400725616E+02  0.00000000000E+00 0.  1.
         11    1    3    3    0    0 -0.14337538479E+02 -0.13187476061E+02  0.25805506110E+02  0.32332625633E+02  0.51100000000E-03 0. -1.
        -11    1    3    3    0    0 -0.46799418231E+01  0.21176571463E+01  0.17737081949E-02  0.51367626638E+01  0.51100000000E-03 0.  1.
         12    1    3    3    0    0 -0.59365806351E+01  0.13147572290E+01  0.83358980983E+01  0.10317886087E+02  0.00000000000E+00 0. -1.
</event>
<event>
 7    1  0.9175399E-010  0.4778727E+02  0.7816164E-02  0.1312668E+00
        -11   -1    0    0    0    0  0.00000000000E+00  0.00000000000E+00  0.45593999997E+02  0.45594000000E+02  0.51100000000E-03 0.  1.
         11   -1    0    0    0    0 -0.00000000000E+00 -0.00000000000E+00 -0.45593999997E+02  0.45594000000E+02  0.51100000000E-03 0. -1.
    9900012    2    1    2    0    0 -0.33158189590E+02  0.14322539855E+02  0.24062896786E+02  0.47787266290E+02  0.19999978323E+02 0.  0.
        -12    1    1    2    0    0  0.33158189590E+02 -0.14322539855E+02 -0.24062896786E+02  0.43400733710E+02  0.00000000000E+00 0.  1.
         11    1    3    3    0    0 -0.11792309995E+02  0.49414328568E+01  0.14218841650E+00  0.12786577005E+02  0.51100000000E-03 0. -1.
        -11    1    3    3    0    0 -0.12810011860E+02  0.36190354294E-01  0.13327302496E+02  0.18485526925E+02  0.51100000000E-03 0.  1.
         12    1    3    3    0    0 -0.85558677346E+01  0.93449166442E+01  0.10593405873E+02  0.16515162360E+02  0.00000000000E+00 0. -1.
</event>
<event>
 7    1  0.9175399E-010  0.4778727E+02  0.7816164E-02  0.1312668E+00
        -11   -1    0    0    0    0  0.00000000000E+00  0.00000000000E+00  0.45593999997E+02  0.45594000000E+02  0.51100000000E-03 0. -1.
         11   -1    0    0    0    0 -0.00000000000E+00 -0.00000000000E+00 -0.45593999997E+02  0.45594000000E+02  0.51100000000E-03 0.  1.
    9900012    2    1    2    0    0 -0.13592144569E+01  0.19656503920E+02 -0.38670370714E+02  0.47787272110E+02  0.20000004856E+02 0.  0.
         12    1    1    2    0    0  0.13592144569E+01 -0.19656503920E+02  0.38670370714E+02  0.43400727890E+02  0.00000000000E+00 0. -1.
         11    1    3    3    0    0  0.20919283290E+01  0.29062303044E+01 -0.22609840435E+02  0.22891640909E+02  0.51100000000E-03 0.  1.
        -11    1    3    3    0    0 -0.60335993559E+00  0.49914694189E+01 -0.31369423614E+00  0.50375802233E+01  0.51100000000E-03 0. -1.
         12    1    3    3    0    0 -0.28477828503E+01  0.11758804196E+02 -0.15746836042E+02  0.19858050978E+02  0.00000000000E+00 0. -1.
</event>
<event>
 7    1  0.9175399E-010  0.4778727E+02  0.7816164E-02  0.1312668E+00
        -11   -1    0    0    0    0  0.00000000000E+00  0.00000000000E+00  0.45593999997E+02  0.45594000000E+02  0.51100000000E-03 0. -1.
         11   -1    0    0    0    0 -0.00000000000E+00 -0.00000000000E+00 -0.45593999997E+02  0.45594000000E+02  0.51100000000E-03 0.  1.
    9900012    2    1    2    0    0  0.56936626294E+01 -0.22806064080E+01 -0.42965152389E+02  0.47787270979E+02  0.19999999704E+02 0.  0.
         12    1    1    2    0    0 -0.56936626294E+01  0.22806064080E+01  0.42965152389E+02  0.43400729021E+02  0.00000000000E+00 0. -1.
         11    1    3    3    0    0  0.84929404872E+01 -0.36138904445E+01 -0.20251629556E+02  0.22255757506E+02  0.51100000000E-03 0. -1.
        -11    1    3    3    0    0 -0.71750758084E+01  0.81729353431E+00 -0.13169225832E+02  0.15019260663E+02  0.51100000000E-03 0.  1.
        -12    1    3    3    0    0  0.43757979506E+01  0.51599050218E+00 -0.95442970010E+01  0.10512252810E+02  0.00000000000E+00 0.  1.
</event>
<event>
 7    1  0.9175399E-010  0.4778727E+02  0.7816164E-02  0.1312668E+00
        -11   -1    0    0    0    0  0.00000000000E+00  0.00000000000E+00  0.45593999997E+02  0.45594000000E+02  0.51100000000E-03 0. -1.
         11   -1    0    0    0    0 -0.00000000000E+00 -0.00000000000E+00 -0.45593999997E+02  0.45594000000E+02  0.51100000000E-03 0.  1.
    9900012    2    1    2    0    0  0.30607310061E+02  0.19292390155E+02 -0.23971221098E+02  0.47787272034E+02  0.20000004511E+02 0.  0.
         12    1    1    2    0    0 -0.30607310061E+02 -0.19292390155E+02  0.23971221098E+02  0.43400727966E+02  0.00000000000E+00 0. -1.
         11    1    3    3    0    0  0.91224528967E+01  0.38751588696E+01  0.13324629752E+01  0.10000573032E+02  0.51100000000E-03 0. -1.
        -11    1    3    3    0    0  0.15307404342E+02  0.76805331357E+01 -0.20705788973E+02  0.26870744578E+02  0.51100000000E-03 0.  1.
        -12    1    3    3    0    0  0.61774528221E+01  0.77366981501E+01 -0.45978951005E+01  0.10915954424E+02  0.00000000000E+00 0.  1.
</event>
<event>
 7    1  0.9175399E-010  0.4778727E+02  0.7816164E-02  0.1312668E+00
        -11   -1    0    0    0    0  0.00000000000E+00  0.00000000000E+00  0.45593999997E+02  0.45594000000E+02  0.51100000000E-03 0. -1.
         11   -1    0    0    0    0 -0.00000000000E+00 -0.00000000000E+00 -0.45593999997E+02  0.45594000000E+02  0.51100000000E-03 0.  1.
    9900012    2    1    2    0    0  0.33271230733E+01 -0.43172414988E+02 -0.29490041785E+01  0.47787265104E+02  0.19999972916E+02 0.  0.
         12    1    1    2    0    0 -0.33271230733E+01  0.43172414988E+02  0.29490041785E+01  0.43400734896E+02  0.00000000000E+00 0. -1.
         11    1    3    3    0    0  0.21295657467E+01 -0.95302068269E+00  0.21119701356E+01  0.31470171283E+01  0.51100000000E-03 0. -1.
        -11    1    3    3    0    0 -0.26349285674E+01 -0.27360360539E+02 -0.87717125198E+01  0.28852644908E+02  0.51100000000E-03 0.  1.
        -12    1    3    3    0    0  0.38324858940E+01 -0.14859033766E+02  0.37107382057E+01  0.15787603068E+02  0.00000000000E+00 0.  1.
</event>
<event>
 7    1  0.9175399E-010  0.4778727E+02  0.7816164E-02  0.1312668E+00
        -11   -1    0    0    0    0  0.00000000000E+00  0.00000000000E+00  0.45593999997E+02  0.45594000000E+02  0.51100000000E-03 0. -1.
         11   -1    0    0    0    0 -0.00000000000E+00 -0.00000000000E+00 -0.45593999997E+02  0.45594000000E+02  0.51100000000E-03 0.  1.
    9900012    2    1    2    0    0  0.22088816590E+02  0.19423859097E+02 -0.31912711578E+02  0.47787270964E+02  0.19999999634E+02 0.  0.
         12    1    1    2    0    0 -0.22088816590E+02 -0.19423859097E+02  0.31912711578E+02  0.43400729036E+02  0.00000000000E+00 0. -1.
         11    1    3    3    0    0 -0.18429458668E+01  0.16489823631E+01 -0.55715310762E+00  0.25349580171E+01  0.51100000000E-03 0. -1.
        -11    1    3    3    0    0  0.23861863173E+02  0.17623852404E+02 -0.24719081699E+02  0.38613749985E+02  0.51100000000E-03 0.  1.
        -12    1    3    3    0    0  0.69899284013E-01  0.15102433014E+00 -0.66364767716E+01  0.66385629619E+01  0.00000000000E+00 0.  1.
</event>
<event>
 7    1  0.9175399E-010  0.4778727E+02  0.7816164E-02  0.1312668E+00
        -11   -1    0    0    0    0  0.00000000000E+00  0.00000000000E+00  0.45593999997E+02  0.45594000000E+02  0.51100000000E-03 0.  1.
         11   -1    0    0    0    0 -0.00000000000E+00 -0.00000000000E+00 -0.45593999997E+02  0.45594000000E+02  0.51100000000E-03 0. -1.
    9900012    2    1    2    0    0 -0.18050264345E+02 -0.35576653323E+02 -0.17091318405E+02  0.47787268792E+02  0.19999989730E+02 0.  0.
         12    1    1    2    0    0  0.18050264345E+02  0.35576653323E+02  0.17091318405E+02  0.43400731208E+02  0.00000000000E+00 0. -1.
         11    1    3    3    0    0 -0.79034311504E+01 -0.19426314701E+01 -0.37836587144E+01  0.89751943994E+01  0.51100000000E-03 0. -1.
        -11    1    3    3    0    0 -0.76765886598E+01 -0.32114142884E+02 -0.13944397880E+02  0.35842634098E+02  0.51100000000E-03 0.  1.
        -12    1    3    3    0    0 -0.24702445344E+01 -0.15198789690E+01  0.63673818873E+00  0.29694402942E+01  0.00000000000E+00 0.  1.
</event>
<event>
 7    1  0.9175399E-010  0.4778728E+02  0.7816164E-02  0.1312668E+00
        -11   -1    0    0    0    0  0.00000000000E+00  0.00000000000E+00  0.45593999997E+02  0.45594000000E+02  0.51100000000E-03 0. -1.
         11   -1    0    0    0    0 -0.00000000000E+00 -0.00000000000E+00 -0.45593999997E+02  0.45594000000E+02  0.51100000000E-03 0.  1.
    9900012    2    1    2    0    0 -0.24649050391E+02 -0.35096343050E+02  0.66553499369E+01  0.47787278077E+02  0.20000032063E+02 0.  0.
        -12    1    1    2    0    0  0.24649050391E+02  0.35096343050E+02 -0.66553499369E+01  0.43400721923E+02  0.00000000000E+00 0.  1.
         11    1    3    3    0    0 -0.13537767356E+02 -0.25888931667E+02  0.28439242303E+00  0.29216242181E+02  0.51100000000E-03 0. -1.
        -11    1    3    3    0    0 -0.38048258273E+01 -0.30230400155E+01  0.74953323461E+01  0.89328314520E+01  0.51100000000E-03 0.  1.
        -12    1    3    3    0    0 -0.73064572077E+01 -0.61843713670E+01 -0.11243748322E+01  0.96382044436E+01  0.00000000000E+00 0.  1.
</event>
<event>
 7    1  0.9175399E-010  0.4778727E+02  0.7816164E-02  0.1312668E+00
        -11   -1    0    0    0    0  0.00000000000E+00  0.00000000000E+00  0.45593999997E+02  0.45594000000E+02  0.51100000000E-03 0. -1.
         11   -1    0    0    0    0 -0.00000000000E+00 -0.00000000000E+00 -0.45593999997E+02  0.45594000000E+02  0.51100000000E-03 0.  1.
    9900012    2    1    2    0    0  0.11148387477E+02 -0.36715730024E+02 -0.20280335345E+02  0.47787269865E+02  0.19999994623E+02 0.  0.
         12    1    1    2    0    0 -0.11148387477E+02  0.36715730024E+02  0.20280335345E+02  0.43400730135E+02  0.00000000000E+00 0. -1.
         11    1    3    3    0    0  0.90778590211E-02 -0.42837084736E+00  0.14720892846E+01  0.15331768043E+01  0.51100000000E-03 0. -1.
        -11    1    3    3    0    0  0.11654146703E+02 -0.26294907102E+02 -0.22053913045E+02  0.36243845764E+02  0.51100000000E-03 0.  1.
        -12    1    3    3    0    0 -0.51483708531E+00 -0.99924520746E+01  0.30148841492E+00  0.10010247297E+02  0.00000000000E+00 0.  1.
</event>
<event>
 7    1  0.9175399E-010  0.4778724E+02  0.7816164E-02  0.1312668E+00
        -11   -1    0    0    0    0  0.00000000000E+00  0.00000000000E+00  0.45593999997E+02  0.45594000000E+02  0.51100000000E-03 0.  1.
         11   -1    0    0    0    0 -0.00000000000E+00 -0.00000000000E+00 -0.45593999997E+02  0.45594000000E+02  0.51100000000E-03 0. -1.
    9900012    2    1    2    0    0 -0.42015406341E+02  0.23447970606E+01  0.10622326219E+02  0.47787236671E+02  0.19999843276E+02 0.  0.
         12    1    1    2    0    0  0.42015406341E+02 -0.23447970606E+01 -0.10622326219E+02  0.43400763329E+02  0.00000000000E+00 0. -1.
         11    1    3    3    0    0 -0.12599739401E+02  0.85518161351E+01 -0.17153178154E+00  0.15228802172E+02  0.51100000000E-03 0. -1.
        -11    1    3    3    0    0 -0.15399928343E+02 -0.28554965839E-01  0.54498287434E+01  0.16335826944E+02  0.51100000000E-03 0.  1.
         12    1    3    3    0    0 -0.14015738597E+02 -0.61784641086E+01  0.53440292572E+01  0.16222607554E+02  0.00000000000E+00 0. -1.
</event>
<event>
 7    1  0.9175399E-010  0.4778727E+02  0.7816164E-02  0.1312668E+00
        -11   -1    0    0    0    0  0.00000000000E+00  0.00000000000E+00  0.45593999997E+02  0.45594000000E+02  0.51100000000E-03 0. -1.
         11   -1    0    0    0    0 -0.00000000000E+00 -0.00000000000E+00 -0.45593999997E+02  0.45594000000E+02  0.51100000000E-03 0.  1.
    9900012    2    1    2    0    0  0.11401780131E+02  0.22325950603E+02  0.35428445575E+02  0.47787269403E+02  0.19999992516E+02 0.  0.
        -12    1    1    2    0    0 -0.11401780131E+02 -0.22325950603E+02 -0.35428445575E+02  0.43400730597E+02  0.00000000000E+00 0.  1.
         11    1    3    3    0    0  0.80091903887E+01  0.21769995740E+02  0.21000076618E+02  0.31290303025E+02  0.51100000000E-03 0. -1.
        -11    1    3    3    0    0  0.16028021692E+01  0.20831744244E+01  0.13818690646E+02  0.14066442404E+02  0.51100000000E-03 0.  1.
         12    1    3    3    0    0  0.17897875734E+01 -0.15272195609E+01  0.60967831117E+00  0.24305239741E+01  0.00000000000E+00 0. -1.
</event>
<event>
 7    1  0.9175399E-010  0.4778727E+02  0.7816164E-02  0.1312668E+00
        -11   -1    0    0    0    0  0.00000000000E+00  0.00000000000E+00  0.45593999997E+02  0.45594000000E+02  0.51100000000E-03 0. -1.
         11   -1    0    0    0    0 -0.00000000000E+00 -0.00000000000E+00 -0.45593999997E+02  0.45594000000E+02  0.51100000000E-03 0.  1.
    9900012    2    1    2    0    0  0.12539791883E+02 -0.24572643962E+02  0.33504653907E+02  0.47787273679E+02  0.20000012013E+02 0.  0.
        -12    1    1    2    0    0 -0.12539791883E+02  0.24572643962E+02 -0.33504653907E+02  0.43400726321E+02  0.00000000000E+00 0.  1.
         11    1    3    3    0    0  0.57004700572E+01 -0.96476117065E+01  0.26238072140E+02  0.28530828947E+02  0.51100000000E-03 0. -1.
        -11    1    3    3    0    0  0.35646254921E+01 -0.72466275070E+01 -0.16871503018E+00  0.80776624185E+01  0.51100000000E-03 0.  1.
        -12    1    3    3    0    0  0.32746963342E+01 -0.76784047484E+01  0.74352967971E+01  0.11178782314E+02  0.00000000000E+00 0.  1.
</event>
<event>
 7    1  0.9175399E-010  0.4778726E+02  0.7816164E-02  0.1312668E+00
        -11   -1    0    0    0    0  0.00000000000E+00  0.00000000000E+00  0.45593999997E+02  0.45594000000E+02  0.51100000000E-03 0. -1.
         11   -1    0    0    0    0 -0.00000000000E+00 -0.00000000000E+00 -0.45593999997E+02  0.45594000000E+02  0.51100000000E-03 0.  1.
    9900012    2    1    2    0    0  0.16483842706E+01 -0.88812011933E+01  0.42450335063E+02  0.47787264380E+02  0.19999969616E+02 0.  0.
        -12    1    1    2    0    0 -0.16483842706E+01  0.88812011933E+01 -0.42450335063E+02  0.43400735620E+02  0.00000000000E+00 0.  1.
         11    1    3    3    0    0 -0.14961090546E+01 -0.96635311373E+01  0.15669083644E+02  0.18470039492E+02  0.51100000000E-03 0. -1.
        -11    1    3    3    0    0 -0.16982043626E+01  0.50954879172E+01  0.13742547499E+02  0.14754846905E+02  0.51100000000E-03 0.  1.
        -12    1    3    3    0    0  0.48426976878E+01 -0.43131579732E+01  0.13038703920E+02  0.14562377983E+02  0.00000000000E+00 0.  1.
</event>
<event>
 7    1  0.9175399E-010  0.4778727E+02  0.7816164E-02  0.1312668E+00
        -11   -1    0    0    0    0  0.00000000000E+00  0.00000000000E+00  0.45593999997E+02  0.45594000000E+02  0.51100000000E-03 0. -1.
         11   -1    0    0    0    0 -0.00000000000E+00 -0.00000000000E+00 -0.45593999997E+02  0.45594000000E+02  0.51100000000E-03 0.  1.
    9900012    2    1    2    0    0 -0.54826749318E+00 -0.35888999718E+02  0.24398814581E+02  0.47787273613E+02  0.20000011709E+02 0.  0.
        -12    1    1    2    0    0  0.54826749318E+00  0.35888999718E+02 -0.24398814581E+02  0.43400726387E+02  0.00000000000E+00 0.  1.
         11    1    3    3    0    0 -0.90937517742E+00 -0.29614721990E+02  0.18892736021E+02  0.35139638535E+02  0.51100000000E-03 0. -1.
        -11    1    3    3    0    0  0.53550663216E-01  0.22324012181E+01 -0.42465303307E+00  0.22730625446E+01  0.51100000000E-03 0.  1.
        -12    1    3    3    0    0  0.30755702102E+00 -0.85066789461E+01  0.59307315928E+01  0.10374572533E+02  0.00000000000E+00 0.  1.
</event>
<event>
 7    1  0.9175399E-010  0.4778727E+02  0.7816164E-02  0.1312668E+00
        -11   -1    0    0    0    0  0.00000000000E+00  0.00000000000E+00  0.45593999997E+02  0.45594000000E+02  0.51100000000E-03 0. -1.
         11   -1    0    0    0    0 -0.00000000000E+00 -0.00000000000E+00 -0.45593999997E+02  0.45594000000E+02  0.51100000000E-03 0.  1.
    9900012    2    1    2    0    0 -0.34833331999E+02 -0.20855434679E+01 -0.25805280369E+02  0.47787274146E+02  0.20000014141E+02 0.  0.
         12    1    1    2    0    0  0.34833331999E+02  0.20855434679E+01  0.25805280369E+02  0.43400725854E+02  0.00000000000E+00 0. -1.
         11    1    3    3    0    0 -0.14823070862E+02  0.88215850478E+00 -0.10674316164E+01  0.14887613775E+02  0.51100000000E-03 0. -1.
        -11    1    3    3    0    0 -0.11207619615E+02 -0.32578883585E+01 -0.85402137795E+01  0.14462358924E+02  0.51100000000E-03 0.  1.
         12    1    3    3    0    0 -0.88026415226E+01  0.29018638582E+00 -0.16197634973E+02  0.18437301447E+02  0.00000000000E+00 0. -1.
</event>
<event>
 7    1  0.9175399E-010  0.4778728E+02  0.7816164E-02  0.1312668E+00
        -11   -1    0    0    0    0  0.00000000000E+00  0.00000000000E+00  0.45593999997E+02  0.45594000000E+02  0.51100000000E-03 0. -1.
         11   -1    0    0    0    0 -0.00000000000E+00 -0.00000000000E+00 -0.45593999997E+02  0.45594000000E+02  0.51100000000E-03 0.  1.
    9900012    2    1    2    0    0 -0.82355345831E+01  0.57457345352E+01  0.42223038500E+02  0.47787280243E+02  0.20000041942E+02 0.  0.
        -12    1    1    2    0    0  0.82355345831E+01 -0.57457345352E+01 -0.42223038500E+02  0.43400719757E+02  0.00000000000E+00 0.  1.
         11    1    3    3    0    0  0.39702359247E+01 -0.49735948415E-01  0.25632118828E+02  0.25937824944E+02  0.51100000000E-03 0. -1.
        -11    1    3    3    0    0 -0.50192647668E+01  0.47713890966E+01  0.88474805254E+01  0.11235527785E+02  0.51100000000E-03 0.  1.
         12    1    3    3    0    0 -0.71865057410E+01  0.10240813870E+01  0.77434391470E+01  0.10613927514E+02  0.00000000000E+00 0. -1.
</event>
<event>
 7    1  0.9175399E-010  0.4778727E+02  0.7816164E-02  0.1312668E+00
        -11   -1    0    0    0    0  0.00000000000E+00  0.00000000000E+00  0.45593999997E+02  0.45594000000E+02  0.51100000000E-03 0. -1.
         11   -1    0    0    0    0 -0.00000000000E+00 -0.00000000000E+00 -0.45593999997E+02  0.45594000000E+02  0.51100000000E-03 0.  1.
    9900012    2    1    2    0    0  0.21516418857E+02  0.21165103937E+02  0.31188222768E+02  0.47787272535E+02  0.20000006795E+02 0.  0.
        -12    1    1    2    0    0 -0.21516418857E+02 -0.21165103937E+02 -0.31188222768E+02  0.43400727465E+02  0.00000000000E+00 0.  1.
         11    1    3    3    0    0  0.12542632369E+02  0.13200817014E+02  0.16323455943E+02  0.24454742091E+02  0.51100000000E-03 0. -1.
        -11    1    3    3    0    0 -0.21544618810E+01  0.38655956026E+00  0.78538714398E+01  0.81531853373E+01  0.51100000000E-03 0.  1.
        -12    1    3    3    0    0  0.11128248369E+02  0.75777273626E+01  0.70108953852E+01  0.15179345106E+02  0.00000000000E+00 0.  1.
</event>
<event>
 7    1  0.9175399E-010  0.4778727E+02  0.7816164E-02  0.1312668E+00
        -11   -1    0    0    0    0  0.00000000000E+00  0.00000000000E+00  0.45593999997E+02  0.45594000000E+02  0.51100000000E-03 0. -1.
         11   -1    0    0    0    0 -0.00000000000E+00 -0.00000000000E+00 -0.45593999997E+02  0.45594000000E+02  0.51100000000E-03 0.  1.
    9900012    2    1    2    0    0  0.18332053898E+02 -0.32583758757E+02  0.22042174931E+02  0.47787274078E+02  0.20000013833E+02 0.  0.
        -12    1    1    2    0    0 -0.18332053898E+02  0.32583758757E+02 -0.22042174931E+02  0.43400725922E+02  0.00000000000E+00 0.  1.
         11    1    3    3    0    0 -0.79605887290E+00 -0.51919908352E+01  0.53617276493E+01  0.75059044897E+01  0.51100000000E-03 0. -1.
        -11    1    3    3    0    0  0.84684566961E+01 -0.12380168521E+02  0.15892756938E+02  0.21853216120E+02  0.51100000000E-03 0.  1.
        -12    1    3    3    0    0  0.10659656074E+02 -0.15011599401E+02  0.78769034348E+00  0.18428153469E+02  0.00000000000E+00 0.  1.
</event>
<event>
 7    1  0.9175399E-010  0.4778727E+02  0.7816164E-02  0.1312668E+00
        -11   -1    0    0    0    0  0.00000000000E+00  0.00000000000E+00  0.45593999997E+02  0.45594000000E+02  0.51100000000E-03 0. -1.
         11   -1    0    0    0    0 -0.00000000000E+00 -0.00000000000E+00 -0.45593999997E+02  0.45594000000E+02  0.51100000000E-03 0.  1.
    9900012    2    1    2    0    0 -0.32343373166E+02 -0.19858858972E+02 -0.21051250800E+02  0.47787271577E+02  0.20000002428E+02 0.  0.
         12    1    1    2    0    0  0.32343373166E+02  0.19858858972E+02  0.21051250800E+02  0.43400728423E+02  0.00000000000E+00 0. -1.
         11    1    3    3    0    0 -0.19953830628E+02 -0.68142796118E+01 -0.14966119773E+02  0.25856807705E+02  0.51100000000E-03 0. -1.
        -11    1    3    3    0    0 -0.60142357567E+01 -0.13201615686E+00 -0.43542396236E+01  0.74261607149E+01  0.51100000000E-03 0.  1.
         12    1    3    3    0    0 -0.63753067810E+01 -0.12912563203E+02 -0.17308914035E+01  0.14504303157E+02  0.00000000000E+00 0. -1.
</event>
<event>
 7    1  0.9175399E-010  0.4778727E+02  0.7816164E-02  0.1312668E+00
        -11   -1    0    0    0    0  0.00000000000E+00  0.00000000000E+00  0.45593999997E+02  0.45594000000E+02  0.51100000000E-03 0. -1.
         11   -1    0    0    0    0 -0.00000000000E+00 -0.00000000000E+00 -0.45593999997E+02  0.45594000000E+02  0.51100000000E-03 0.  1.
    9900012    2    1    2    0    0  0.28608506089E+02 -0.19871192643E+02  0.25890388239E+02  0.47787272807E+02  0.20000008037E+02 0.  0.
        -12    1    1    2    0    0 -0.28608506089E+02  0.19871192643E+02 -0.25890388239E+02  0.43400727193E+02  0.00000000000E+00 0.  1.
         11    1    3    3    0    0  0.18974789237E+02 -0.14353337841E+02  0.24953842626E+02  0.34478329365E+02  0.51100000000E-03 0. -1.
        -11    1    3    3    0    0  0.69411536668E+01 -0.50034620460E+01 -0.24987997634E+01  0.89139355613E+01  0.51100000000E-03 0.  1.
        -12    1    3    3    0    0  0.26925631848E+01 -0.51439275582E+00  0.34353453768E+01  0.43950078805E+01  0.00000000000E+00 0.  1.
</event>
<event>
 7    1  0.9175399E-010  0.4778727E+02  0.7816164E-02  0.1312668E+00
        -11   -1    0    0    0    0  0.00000000000E+00  0.00000000000E+00  0.45593999997E+02  0.45594000000E+02  0.51100000000E-03 0. -1.
         11   -1    0    0    0    0 -0.00000000000E+00 -0.00000000000E+00 -0.45593999997E+02  0.45594000000E+02  0.51100000000E-03 0.  1.
    9900012    2    1    2    0    0  0.23613653022E+02 -0.22358317788E+02  0.28742376698E+02  0.47787271877E+02  0.20000003796E+02 0.  0.
        -12    1    1    2    0    0 -0.23613653022E+02  0.22358317788E+02 -0.28742376698E+02  0.43400728123E+02  0.00000000000E+00 0.  1.
         11    1    3    3    0    0  0.57036899465E+00 -0.51686908492E+01  0.43397862410E+01  0.67730665701E+01  0.51100000000E-03 0. -1.
        -11    1    3    3    0    0  0.17666135445E+02 -0.38197297775E+01  0.10073264577E+02  0.20691866437E+02  0.51100000000E-03 0.  1.
        -12    1    3    3    0    0  0.53771485827E+01 -0.13369897161E+02  0.14329325880E+02  0.20322338870E+02  0.00000000000E+00 0.  1.
</event>
<event>
 7    1  0.9175399E-010  0.4778728E+02  0.7816164E-02  0.1312668E+00
        -11   -1    0    0    0    0  0.00000000000E+00  0.00000000000E+00  0.45593999997E+02  0.45594000000E+02  0.51100000000E-03 0.  1.
         11   -1    0    0    0    0 -0.00000000000E+00 -0.00000000000E+00 -0.45593999997E+02  0.45594000000E+02  0.51100000000E-03 0. -1.
    9900012    2    1    2    0    0  0.18652164446E+02  0.36547335734E+02  0.14142540203E+02  0.47787280753E+02  0.20000044264E+02 0.  0.
        -12    1    1    2    0    0 -0.18652164446E+02 -0.36547335734E+02 -0.14142540203E+02  0.43400719247E+02  0.00000000000E+00 0.  1.
         11    1    3    3    0    0  0.10491751210E+02  0.16773342505E+02 -0.24271100659E+00  0.19785873019E+02  0.51100000000E-03 0. -1.
        -11    1    3    3    0    0  0.52116957750E+01  0.29564372043E+01  0.53427599761E+00  0.60156250628E+01  0.51100000000E-03 0.  1.
         12    1    3    3    0    0  0.29487174615E+01  0.16817556024E+02  0.13850975212E+02  0.21985782671E+02  0.00000000000E+00 0. -1.
</event>
<event>
 7    1  0.9175399E-010  0.4778727E+02  0.7816164E-02  0.1312668E+00
        -11   -1    0    0    0    0  0.00000000000E+00  0.00000000000E+00  0.45593999997E+02  0.45594000000E+02  0.51100000000E-03 0. -1.
         11   -1    0    0    0    0 -0.00000000000E+00 -0.00000000000E+00 -0.45593999997E+02  0.45594000000E+02  0.51100000000E-03 0.  1.
    9900012    2    1    2    0    0 -0.32687048968E+01 -0.88745598127E+01  0.42357771323E+02  0.47787273796E+02  0.20000012545E+02 0.  0.
        -12    1    1    2    0    0  0.32687048968E+01  0.88745598127E+01 -0.42357771323E+02  0.43400726204E+02  0.00000000000E+00 0.  1.
         11    1    3    3    0    0  0.70865438814E+01 -0.34386187945E+01  0.19568947453E+02  0.21094712799E+02  0.51100000000E-03 0. -1.
        -11    1    3    3    0    0 -0.10058521983E+02 -0.41730350857E+01  0.13647942387E+02  0.17460080697E+02  0.51100000000E-03 0.  1.
        -12    1    3    3    0    0 -0.29672679569E+00 -0.12629059325E+01  0.91408814837E+01  0.92324802997E+01  0.00000000000E+00 0.  1.
</event>
<event>
 7    1  0.9175399E-010  0.4778727E+02  0.7816164E-02  0.1312668E+00
        -11   -1    0    0    0    0  0.00000000000E+00  0.00000000000E+00  0.45593999997E+02  0.45594000000E+02  0.51100000000E-03 0. -1.
         11   -1    0    0    0    0 -0.00000000000E+00 -0.00000000000E+00 -0.45593999997E+02  0.45594000000E+02  0.51100000000E-03 0.  1.
    9900012    2    1    2    0    0 -0.15075351562E+01 -0.27821397793E+02 -0.33276426709E+02  0.47787269454E+02  0.19999992750E+02 0.  0.
         12    1    1    2    0    0  0.15075351562E+01  0.27821397793E+02  0.33276426709E+02  0.43400730546E+02  0.00000000000E+00 0. -1.
         11    1    3    3    0    0 -0.10298135732E+02 -0.99929146263E+01 -0.12849877587E+02  0.19262120770E+02  0.51100000000E-03 0. -1.
        -11    1    3    3    0    0  0.56865204803E+01 -0.12716534520E+02 -0.14343286431E+02  0.19994415001E+02  0.51100000000E-03 0.  1.
         12    1    3    3    0    0  0.31040800951E+01 -0.51119486467E+01 -0.60832626910E+01  0.85307336831E+01  0.00000000000E+00 0. -1.
</event>
<event>
 7    1  0.9175399E-010  0.4778727E+02  0.7816164E-02  0.1312668E+00
        -11   -1    0    0    0    0  0.00000000000E+00  0.00000000000E+00  0.45593999997E+02  0.45594000000E+02  0.51100000000E-03 0.  1.
         11   -1    0    0    0    0 -0.00000000000E+00 -0.00000000000E+00 -0.45593999997E+02  0.45594000000E+02  0.51100000000E-03 0. -1.
    9900012    2    1    2    0    0 -0.32643164281E+02 -0.24573608375E+02 -0.14635060868E+02  0.47787269482E+02  0.19999992877E+02 0.  0.
         12    1    1    2    0    0  0.32643164281E+02  0.24573608375E+02  0.14635060868E+02  0.43400730518E+02  0.00000000000E+00 0. -1.
         11    1    3    3    0    0 -0.26635483729E+02 -0.13938944955E+02 -0.88297281194E+01  0.31332208330E+02  0.51100000000E-03 0. -1.
        -11    1    3    3    0    0 -0.79952717028E+01 -0.57733364415E+01 -0.22570582531E+01  0.10116822401E+02  0.51100000000E-03 0.  1.
         12    1    3    3    0    0  0.19875911504E+01 -0.48613269780E+01 -0.35482744958E+01  0.63382387511E+01  0.00000000000E+00 0. -1.
</event>
<event>
 7    1  0.9175399E-010  0.4778727E+02  0.7816164E-02  0.1312668E+00
        -11   -1    0    0    0    0  0.00000000000E+00  0.00000000000E+00  0.45593999997E+02  0.45594000000E+02  0.51100000000E-03 0. -1.
         11   -1    0    0    0    0 -0.00000000000E+00 -0.00000000000E+00 -0.45593999997E+02  0.45594000000E+02  0.51100000000E-03 0.  1.
    9900012    2    1    2    0    0  0.53487211629E+01  0.14756368879E+01  0.43044592408E+02  0.47787271229E+02  0.20000000840E+02 0.  0.
        -12    1    1    2    0    0 -0.53487211629E+01 -0.14756368879E+01 -0.43044592408E+02  0.43400728771E+02  0.00000000000E+00 0.  1.
         11    1    3    3    0    0  0.19935921570E+01 -0.92394391678E+00 -0.40929417944E+00  0.22350847940E+01  0.51100000000E-03 0. -1.
        -11    1    3    3    0    0  0.30434397910E+01 -0.30303732876E+01  0.45005727079E+01  0.62210001595E+01  0.51100000000E-03 0.  1.
         12    1    3    3    0    0  0.31168921492E+00  0.54299540924E+01  0.38953313880E+02  0.39331186275E+02  0.00000000000E+00 0. -1.
</event>
<event>
 7    1  0.9175399E-010  0.4778727E+02  0.7816164E-02  0.1312668E+00
        -11   -1    0    0    0    0  0.00000000000E+00  0.00000000000E+00  0.45593999997E+02  0.45594000000E+02  0.51100000000E-03 0. -1.
         11   -1    0    0    0    0 -0.00000000000E+00 -0.00000000000E+00 -0.45593999997E+02  0.45594000000E+02  0.51100000000E-03 0.  1.
    9900012    2    1    2    0    0  0.40559891143E+02  0.14371338052E+02 -0.56553647523E+01  0.47787271004E+02  0.19999999815E+02 0.  0.
         12    1    1    2    0    0 -0.40559891143E+02 -0.14371338052E+02  0.56553647523E+01  0.43400728996E+02  0.00000000000E+00 0. -1.
         11    1    3    3    0    0  0.75909785508E+01  0.20359989744E+00 -0.98602060040E+00  0.76574568339E+01  0.51100000000E-03 0. -1.
        -11    1    3    3    0    0  0.17778714281E+02  0.11133910846E+01 -0.85004329815E+01  0.19737772983E+02  0.51100000000E-03 0.  1.
        -12    1    3    3    0    0  0.15190198310E+02  0.13054347070E+02  0.38310888296E+01  0.20392041187E+02  0.00000000000E+00 0.  1.
</event>
<event>
 7    1  0.9175399E-010  0.4778727E+02  0.7816164E-02  0.1312668E+00
        -11   -1    0    0    0    0  0.00000000000E+00  0.00000000000E+00  0.45593999997E+02  0.45594000000E+02  0.51100000000E-03 0. -1.
         11   -1    0    0    0    0 -0.00000000000E+00 -0.00000000000E+00 -0.45593999997E+02  0.45594000000E+02  0.51100000000E-03 0.  1.
    9900012    2    1    2    0    0 -0.83675579466E+01 -0.75287576116E+01  0.41915691304E+02  0.47787269653E+02  0.19999993656E+02 0.  0.
        -12    1    1    2    0    0  0.83675579466E+01  0.75287576116E+01 -0.41915691304E+02  0.43400730347E+02  0.00000000000E+00 0.  1.
         11    1    3    3    0    0 -0.84327478322E+01 -0.60235029265E+01  0.35292778181E+02  0.36782795102E+02  0.51100000000E-03 0. -1.
        -11    1    3    3    0    0 -0.10896854008E+01  0.22453783823E+01 -0.78913925385E+00  0.26176094773E+01  0.51100000000E-03 0.  1.
        -12    1    3    3    0    0  0.11548752864E+01 -0.37506330674E+01  0.74120523768E+01  0.83868650741E+01  0.00000000000E+00 0.  1.
</event>
<event>
 7    1  0.9175399E-010  0.4778727E+02  0.7816164E-02  0.1312668E+00
        -11   -1    0    0    0    0  0.00000000000E+00  0.00000000000E+00  0.45593999997E+02  0.45594000000E+02  0.51100000000E-03 0. -1.
         11   -1    0    0    0    0 -0.00000000000E+00 -0.00000000000E+00 -0.45593999997E+02  0.45594000000E+02  0.51100000000E-03 0.  1.
    9900012    2    1    2    0    0  0.24127777209E+02  0.25660922483E+00  0.36075027051E+02  0.47787273531E+02  0.20000011338E+02 0.  0.
        -12    1    1    2    0    0 -0.24127777209E+02 -0.25660922483E+00 -0.36075027051E+02  0.43400726469E+02  0.00000000000E+00 0.  1.
         11    1    3    3    0    0 -0.90458957585E+00  0.99991169812E-01  0.99697493929E+01  0.10011202912E+02  0.51100000000E-03 0. -1.
        -11    1    3    3    0    0  0.85114912523E+00  0.27120142709E+01  0.40490068170E+01  0.49471135730E+01  0.51100000000E-03 0.  1.
         12    1    3    3    0    0  0.24181217659E+02 -0.25553962158E+01  0.22056270841E+02  0.32828957046E+02  0.00000000000E+00 0. -1.
</event>
<event>
 7    1  0.9175399E-010  0.4778727E+02  0.7816164E-02  0.1312668E+00
        -11   -1    0    0    0    0  0.00000000000E+00  0.00000000000E+00  0.45593999997E+02  0.45594000000E+02  0.51100000000E-03 0. -1.
         11   -1    0    0    0    0 -0.00000000000E+00 -0.00000000000E+00 -0.45593999997E+02  0.45594000000E+02  0.51100000000E-03 0.  1.
    9900012    2    1    2    0    0 -0.36074993093E+02  0.16191993956E+02 -0.17889595729E+02  0.47787269243E+02  0.19999991786E+02 0.  0.
         12    1    1    2    0    0  0.36074993093E+02 -0.16191993956E+02  0.17889595729E+02  0.43400730757E+02  0.00000000000E+00 0. -1.
         11    1    3    3    0    0 -0.78694902620E+01  0.98353204657E+01 -0.12212161790E+02  0.17544209914E+02  0.51100000000E-03 0. -1.
        -11    1    3    3    0    0 -0.15634301692E+02  0.72066583764E+00 -0.50748357147E+01  0.16453106286E+02  0.51100000000E-03 0.  1.
         12    1    3    3    0    0 -0.12571201139E+02  0.56360076523E+01 -0.60259822405E+00  0.13789953044E+02  0.00000000000E+00 0. -1.
</event>
<event>
 7    1  0.9175399E-010  0.4778727E+02  0.7816164E-02  0.1312668E+00
        -11   -1    0    0    0    0  0.00000000000E+00  0.00000000000E+00  0.45593999997E+02  0.45594000000E+02  0.51100000000E-03 0. -1.
         11   -1    0    0    0    0 -0.00000000000E+00 -0.00000000000E+00 -0.45593999997E+02  0.45594000000E+02  0.51100000000E-03 0.  1.
    9900012    2    1    2    0    0  0.12713057454E+02 -0.43659925990E+01 -0.41266687125E+02  0.47787272040E+02  0.20000004540E+02 0.  0.
         12    1    1    2    0    0 -0.12713057454E+02  0.43659925990E+01  0.41266687125E+02  0.43400727960E+02  0.00000000000E+00 0. -1.
         11    1    3    3    0    0  0.37608171772E+01 -0.39398491678E+01 -0.94614301475E+01  0.10917179947E+02  0.51100000000E-03 0. -1.
        -11    1    3    3    0    0  0.92881330355E+01  0.31209933516E+00 -0.33620818121E+02  0.34881603069E+02  0.51100000000E-03 0.  1.
        -12    1    3    3    0    0 -0.33589275919E+00 -0.73824276634E+00  0.18155611443E+01  0.19884890234E+01  0.00000000000E+00 0.  1.
</event>
<event>
 7    1  0.9175399E-010  0.4778727E+02  0.7816164E-02  0.1312668E+00
        -11   -1    0    0    0    0  0.00000000000E+00  0.00000000000E+00  0.45593999997E+02  0.45594000000E+02  0.51100000000E-03 0. -1.
         11   -1    0    0    0    0 -0.00000000000E+00 -0.00000000000E+00 -0.45593999997E+02  0.45594000000E+02  0.51100000000E-03 0.  1.
    9900012    2    1    2    0    0 -0.59400632845E+01 -0.11700919640E+02  0.41369402070E+02  0.47787270745E+02  0.19999998635E+02 0.  0.
        -12    1    1    2    0    0  0.59400632845E+01  0.11700919640E+02 -0.41369402070E+02  0.43400729255E+02  0.00000000000E+00 0.  1.
         11    1    3    3    0    0  0.61822570326E+01  0.22529367759E+00  0.12804328451E+02  0.14220474205E+02  0.51100000000E-03 0. -1.
        -11    1    3    3    0    0 -0.11839207545E+02 -0.95683787526E+01  0.23987170759E+02  0.28409594656E+02  0.51100000000E-03 0.  1.
        -12    1    3    3    0    0 -0.28311277170E+00 -0.23578345652E+01  0.45779028599E+01  0.51572018841E+01  0.00000000000E+00 0.  1.
</event>
<event>
 7    1  0.9175399E-010  0.4778727E+02  0.7816164E-02  0.1312668E+00
        -11   -1    0    0    0    0  0.00000000000E+00  0.00000000000E+00  0.45593999997E+02  0.45594000000E+02  0.51100000000E-03 0. -1.
         11   -1    0    0    0    0 -0.00000000000E+00 -0.00000000000E+00 -0.45593999997E+02  0.45594000000E+02  0.51100000000E-03 0.  1.
    9900012    2    1    2    0    0  0.14442652230E+02  0.22521571338E+02 -0.34173258693E+02  0.47787274331E+02  0.20000014983E+02 0.  0.
         12    1    1    2    0    0 -0.14442652230E+02 -0.22521571338E+02  0.34173258693E+02  0.43400725669E+02  0.00000000000E+00 0. -1.
         11    1    3    3    0    0  0.13967816294E+01  0.13183595979E+02 -0.11804713160E+02  0.17751322624E+02  0.51100000000E-03 0. -1.
        -11    1    3    3    0    0  0.11646529478E+02  0.73648699093E+01 -0.90187729256E+01  0.16468795433E+02  0.51100000000E-03 0.  1.
        -12    1    3    3    0    0  0.13993411221E+01  0.19731054494E+01 -0.13349772607E+02  0.13567156273E+02  0.00000000000E+00 0.  1.
</event>
<event>
 7    1  0.9175399E-010  0.4778727E+02  0.7816164E-02  0.1312668E+00
        -11   -1    0    0    0    0  0.00000000000E+00  0.00000000000E+00  0.45593999997E+02  0.45594000000E+02  0.51100000000E-03 0. -1.
         11   -1    0    0    0    0 -0.00000000000E+00 -0.00000000000E+00 -0.45593999997E+02  0.45594000000E+02  0.51100000000E-03 0.  1.
    9900012    2    1    2    0    0 -0.18336993505E+02  0.72147299323E+01  0.38669440765E+02  0.47787270653E+02  0.19999998216E+02 0.  0.
        -12    1    1    2    0    0  0.18336993505E+02 -0.72147299323E+01 -0.38669440765E+02  0.43400729347E+02  0.00000000000E+00 0.  1.
         11    1    3    3    0    0 -0.22784688348E+01  0.27740932962E+01  0.24845181451E+02  0.25103188153E+02  0.51100000000E-03 0. -1.
        -11    1    3    3    0    0 -0.14394436274E+02  0.56888787438E+01  0.13577809041E+02  0.20589318484E+02  0.51100000000E-03 0.  1.
         12    1    3    3    0    0 -0.16640883958E+01 -0.12482421078E+01  0.24645027265E+00  0.20947640167E+01  0.00000000000E+00 0. -1.
</event>
<event>
 7    1  0.9175399E-010  0.4778727E+02  0.7816164E-02  0.1312668E+00
        -11   -1    0    0    0    0  0.00000000000E+00  0.00000000000E+00  0.45593999997E+02  0.45594000000E+02  0.51100000000E-03 0. -1.
         11   -1    0    0    0    0 -0.00000000000E+00 -0.00000000000E+00 -0.45593999997E+02  0.45594000000E+02  0.51100000000E-03 0.  1.
    9900012    2    1    2    0    0  0.37698764381E+02  0.13224798791E+02  0.16956748474E+02  0.47787268927E+02  0.19999990344E+02 0.  0.
        -12    1    1    2    0    0 -0.37698764381E+02 -0.13224798791E+02 -0.16956748474E+02  0.43400731073E+02  0.00000000000E+00 0.  1.
         11    1    3    3    0    0  0.21251734686E+02  0.49501040790E+01  0.14441795053E+02  0.26166872228E+02  0.51100000000E-03 0.  1.
        -11    1    3    3    0    0  0.16273027397E+02  0.55652664207E+01  0.50306821574E+01  0.17919022692E+02  0.51100000000E-03 0. -1.
         12    1    3    3    0    0  0.17400229731E+00  0.27094282910E+01 -0.25157287364E+01  0.37013740069E+01  0.00000000000E+00 0. -1.
</event>
<event>
 7    1  0.9175399E-010  0.4778728E+02  0.7816164E-02  0.1312668E+00
        -11   -1    0    0    0    0  0.00000000000E+00  0.00000000000E+00  0.45593999997E+02  0.45594000000E+02  0.51100000000E-03 0. -1.
         11   -1    0    0    0    0 -0.00000000000E+00 -0.00000000000E+00 -0.45593999997E+02  0.45594000000E+02  0.51100000000E-03 0.  1.
    9900012    2    1    2    0    0  0.15378975259E+01 -0.26637136212E+02  0.34230403921E+02  0.47787277575E+02  0.20000029775E+02 0.  0.
        -12    1    1    2    0    0 -0.15378975259E+01  0.26637136212E+02 -0.34230403921E+02  0.43400722425E+02  0.00000000000E+00 0.  1.
         11    1    3    3    0    0  0.26705673138E+01 -0.15084409957E+02  0.22106114355E+02  0.26895197446E+02  0.51100000000E-03 0. -1.
        -11    1    3    3    0    0 -0.65054376393E+01 -0.87198084656E+01  0.69196171772E+01  0.12893288203E+02  0.51100000000E-03 0.  1.
        -12    1    3    3    0    0  0.53727678513E+01 -0.28329177900E+01  0.52046723888E+01  0.79987919253E+01  0.00000000000E+00 0.  1.
</event>
<event>
 7    1  0.9175399E-010  0.4778727E+02  0.7816164E-02  0.1312668E+00
        -11   -1    0    0    0    0  0.00000000000E+00  0.00000000000E+00  0.45593999997E+02  0.45594000000E+02  0.51100000000E-03 0. -1.
         11   -1    0    0    0    0 -0.00000000000E+00 -0.00000000000E+00 -0.45593999997E+02  0.45594000000E+02  0.51100000000E-03 0.  1.
    9900012    2    1    2    0    0  0.61749238772E+01 -0.26754664027E+02  0.33610741879E+02  0.47787266115E+02  0.19999977523E+02 0.  0.
        -12    1    1    2    0    0 -0.61749238772E+01  0.26754664027E+02 -0.33610741879E+02  0.43400733885E+02  0.00000000000E+00 0.  1.
         11    1    3    3    0    0  0.61455494417E+01 -0.96235898787E+01  0.22342227722E+02  0.25090962515E+02  0.51100000000E-03 0. -1.
        -11    1    3    3    0    0 -0.39037757616E+01 -0.12439017589E+02  0.10031914873E+02  0.16450165350E+02  0.51100000000E-03 0.  1.
         12    1    3    3    0    0  0.39331501972E+01 -0.46920565597E+01  0.12365992842E+01  0.62461382487E+01  0.00000000000E+00 0. -1.
</event>
<event>
 7    1  0.9175399E-010  0.4778728E+02  0.7816164E-02  0.1312668E+00
        -11   -1    0    0    0    0  0.00000000000E+00  0.00000000000E+00  0.45593999997E+02  0.45594000000E+02  0.51100000000E-03 0. -1.
         11   -1    0    0    0    0 -0.00000000000E+00 -0.00000000000E+00 -0.45593999997E+02  0.45594000000E+02  0.51100000000E-03 0.  1.
    9900012    2    1    2    0    0  0.31195826624E+02 -0.22504356839E+02 -0.20099674739E+02  0.47787278807E+02  0.20000035391E+02 0.  0.
         12    1    1    2    0    0 -0.31195826624E+02  0.22504356839E+02  0.20099674739E+02  0.43400721193E+02  0.00000000000E+00 0. -1.
         11    1    3    3    0    0  0.10230962306E+02  0.19089762204E+01 -0.87215986343E+01  0.13578772511E+02  0.51100000000E-03 0.  1.
        -11    1    3    3    0    0  0.12643153986E+02 -0.16250973887E+02 -0.77547297722E+01  0.22001802860E+02  0.51100000000E-03 0. -1.
        -12    1    3    3    0    0  0.83217103313E+01 -0.81623591728E+01 -0.36233463325E+01  0.12206703435E+02  0.00000000000E+00 0.  1.
</event>
<event>
 7    1  0.9175399E-010  0.4778727E+02  0.7816164E-02  0.1312668E+00
        -11   -1    0    0    0    0  0.00000000000E+00  0.00000000000E+00  0.45593999997E+02  0.45594000000E+02  0.51100000000E-03 0. -1.
         11   -1    0    0    0    0 -0.00000000000E+00 -0.00000000000E+00 -0.45593999997E+02  0.45594000000E+02  0.51100000000E-03 0.  1.
    9900012    2    1    2    0    0 -0.65413563895E+01 -0.18173035672E+02 -0.38866118808E+02  0.47787265442E+02  0.19999974456E+02 0.  0.
         12    1    1    2    0    0  0.65413563895E+01  0.18173035672E+02  0.38866118808E+02  0.43400734558E+02  0.00000000000E+00 0. -1.
         11    1    3    3    0    0 -0.71227447696E+01 -0.29601539339E+01 -0.19915695075E+02  0.21357221611E+02  0.51100000000E-03 0. -1.
        -11    1    3    3    0    0 -0.14034862861E+01 -0.64703821688E+01 -0.15444664132E+02  0.16803965889E+02  0.51100000000E-03 0.  1.
         12    1    3    3    0    0  0.19848746662E+01 -0.87424995693E+01 -0.35057596006E+01  0.96260779416E+01  0.00000000000E+00 0. -1.
</event>
<event>
 7    1  0.9175399E-010  0.4778727E+02  0.7816164E-02  0.1312668E+00
        -11   -1    0    0    0    0  0.00000000000E+00  0.00000000000E+00  0.45593999997E+02  0.45594000000E+02  0.51100000000E-03 0. -1.
         11   -1    0    0    0    0 -0.00000000000E+00 -0.00000000000E+00 -0.45593999997E+02  0.45594000000E+02  0.51100000000E-03 0.  1.
    9900012    2    1    2    0    0 -0.21711767214E+01  0.15446882684E+02  0.40500654005E+02  0.47787272266E+02  0.20000005571E+02 0.  0.
        -12    1    1    2    0    0  0.21711767214E+01 -0.15446882684E+02 -0.40500654005E+02  0.43400727734E+02  0.00000000000E+00 0.  1.
         11    1    3    3    0    0  0.13751973371E+01 -0.19247654229E+01  0.14066273417E+01  0.27521792072E+01  0.51100000000E-03 0.  1.
        -11    1    3    3    0    0  0.19226142366E+01  0.13208133948E+02  0.15473381962E+02  0.20434695923E+02  0.51100000000E-03 0. -1.
        -12    1    3    3    0    0 -0.54689882952E+01  0.41635141591E+01  0.23620644701E+02  0.24600397136E+02  0.00000000000E+00 0.  1.
</event>
<event>
 7    1  0.9175399E-010  0.4778727E+02  0.7816164E-02  0.1312668E+00
        -11   -1    0    0    0    0  0.00000000000E+00  0.00000000000E+00  0.45593999997E+02  0.45594000000E+02  0.51100000000E-03 0.  1.
         11   -1    0    0    0    0 -0.00000000000E+00 -0.00000000000E+00 -0.45593999997E+02  0.45594000000E+02  0.51100000000E-03 0. -1.
    9900012    2    1    2    0    0 -0.28452613081E+02  0.32767486442E+02 -0.60336341004E+00  0.47787269519E+02  0.19999993046E+02 0.  0.
         12    1    1    2    0    0  0.28452613081E+02 -0.32767486442E+02  0.60336341004E+00  0.43400730481E+02  0.00000000000E+00 0. -1.
         11    1    3    3    0    0 -0.21580777094E+01  0.11856928332E+02  0.58064647439E+00  0.12065703438E+02  0.51100000000E-03 0. -1.
        -11    1    3    3    0    0 -0.27076313281E+02  0.19233415819E+02 -0.27107112345E+01  0.33322649664E+02  0.51100000000E-03 0.  1.
        -12    1    3    3    0    0  0.78177790946E+00  0.16771422913E+01  0.15267013500E+01  0.23989164173E+01  0.00000000000E+00 0.  1.
</event>
<event>
 7    1  0.9175399E-010  0.4778727E+02  0.7816164E-02  0.1312668E+00
        -11   -1    0    0    0    0  0.00000000000E+00  0.00000000000E+00  0.45593999997E+02  0.45594000000E+02  0.51100000000E-03 0. -1.
         11   -1    0    0    0    0 -0.00000000000E+00 -0.00000000000E+00 -0.45593999997E+02  0.45594000000E+02  0.51100000000E-03 0.  1.
    9900012    2    1    2    0    0  0.22761790656E+02 -0.20359462870E+02 -0.30838557148E+02  0.47787269025E+02  0.19999990791E+02 0.  0.
         12    1    1    2    0    0 -0.22761790656E+02  0.20359462870E+02  0.30838557148E+02  0.43400730975E+02  0.00000000000E+00 0. -1.
         11    1    3    3    0    0  0.12027558466E+01  0.12059437296E+00  0.42412858761E+00  0.12810347182E+01  0.51100000000E-03 0. -1.
        -11    1    3    3    0    0  0.15792712188E+02 -0.17153278501E+02 -0.12201143984E+02  0.26315634828E+02  0.51100000000E-03 0.  1.
        -12    1    3    3    0    0  0.57663226210E+01 -0.33267787416E+01 -0.19061541752E+02  0.20190599479E+02  0.00000000000E+00 0.  1.
</event>
<event>
 7    1  0.9175399E-010  0.4778727E+02  0.7816164E-02  0.1312668E+00
        -11   -1    0    0    0    0  0.00000000000E+00  0.00000000000E+00  0.45593999997E+02  0.45594000000E+02  0.51100000000E-03 0. -1.
         11   -1    0    0    0    0 -0.00000000000E+00 -0.00000000000E+00 -0.45593999997E+02  0.45594000000E+02  0.51100000000E-03 0.  1.
    9900012    2    1    2    0    0 -0.14310778163E+02 -0.11463226064E+02  0.39337250825E+02  0.47787271597E+02  0.20000002518E+02 0.  0.
        -12    1    1    2    0    0  0.14310778163E+02  0.11463226064E+02 -0.39337250825E+02  0.43400728403E+02  0.00000000000E+00 0.  1.
         11    1    3    3    0    0 -0.96637967894E+01 -0.11152361228E+02  0.25381760269E+02  0.29359800476E+02  0.51100000000E-03 0. -1.
        -11    1    3    3    0    0 -0.16101321045E+01  0.14810445283E+01 -0.14493420920E+01  0.26242353267E+01  0.51100000000E-03 0.  1.
        -12    1    3    3    0    0 -0.30368492693E+01 -0.17919093645E+01  0.15404832648E+02  0.15803235794E+02  0.00000000000E+00 0.  1.
</event>
<event>
 7    1  0.9175399E-010  0.4778728E+02  0.7816164E-02  0.1312668E+00
        -11   -1    0    0    0    0  0.00000000000E+00  0.00000000000E+00  0.45593999997E+02  0.45594000000E+02  0.51100000000E-03 0. -1.
         11   -1    0    0    0    0 -0.00000000000E+00 -0.00000000000E+00 -0.45593999997E+02  0.45594000000E+02  0.51100000000E-03 0.  1.
    9900012    2    1    2    0    0  0.16786108399E+02 -0.29594521863E+02 -0.26944642349E+02  0.47787275227E+02  0.20000019072E+02 0.  0.
         12    1    1    2    0    0 -0.16786108399E+02  0.29594521863E+02  0.26944642349E+02  0.43400724773E+02  0.00000000000E+00 0. -1.
         11    1    3    3    0    0  0.34442778497E+00 -0.11124106782E+02 -0.26740046115E+01  0.11446164559E+02  0.51100000000E-03 0. -1.
        -11    1    3    3    0    0  0.86655210728E+01 -0.25703745910E+01 -0.10892416257E+02  0.14154250711E+02  0.51100000000E-03 0.  1.
        -12    1    3    3    0    0  0.77761595408E+01 -0.15900040490E+02 -0.13378221480E+02  0.22186859957E+02  0.00000000000E+00 0.  1.
</event>
<event>
 7    1  0.9175399E-010  0.4778727E+02  0.7816164E-02  0.1312668E+00
        -11   -1    0    0    0    0  0.00000000000E+00  0.00000000000E+00  0.45593999997E+02  0.45594000000E+02  0.51100000000E-03 0. -1.
         11   -1    0    0    0    0 -0.00000000000E+00 -0.00000000000E+00 -0.45593999997E+02  0.45594000000E+02  0.51100000000E-03 0.  1.
    9900012    2    1    2    0    0  0.11646803769E+02 -0.19266933748E+02 -0.37104723642E+02  0.47787270851E+02  0.19999999119E+02 0.  0.
         12    1    1    2    0    0 -0.11646803769E+02  0.19266933748E+02  0.37104723642E+02  0.43400729149E+02  0.00000000000E+00 0. -1.
         11    1    3    3    0    0 -0.90885842349E+00  0.65796514507E+00 -0.63856140754E+01  0.64834411501E+01  0.51100000000E-03 0. -1.
        -11    1    3    3    0    0  0.57704896248E+01 -0.18927495225E+02 -0.17518988782E+02  0.26428461821E+02  0.51100000000E-03 0.  1.
        -12    1    3    3    0    0  0.67851725675E+01 -0.99740366802E+00 -0.13200120784E+02  0.14875367880E+02  0.00000000000E+00 0.  1.
</event>
<event>
 7    1  0.9175399E-010  0.4778727E+02  0.7816164E-02  0.1312668E+00
        -11   -1    0    0    0    0  0.00000000000E+00  0.00000000000E+00  0.45593999997E+02  0.45594000000E+02  0.51100000000E-03 0. -1.
         11   -1    0    0    0    0 -0.00000000000E+00 -0.00000000000E+00 -0.45593999997E+02  0.45594000000E+02  0.51100000000E-03 0.  1.
    9900012    2    1    2    0    0  0.89626472702E+01  0.38396476664E+02  0.18138491059E+02  0.47787270465E+02  0.19999997357E+02 0.  0.
        -12    1    1    2    0    0 -0.89626472702E+01 -0.38396476664E+02 -0.18138491059E+02  0.43400729535E+02  0.00000000000E+00 0.  1.
         11    1    3    3    0    0  0.31507422226E+01  0.80791840038E+01 -0.27730236295E+01  0.91043973459E+01  0.51100000000E-03 0. -1.
        -11    1    3    3    0    0 -0.28087074590E+01  0.58672545183E+01  0.29442721881E+01  0.71401857225E+01  0.51100000000E-03 0.  1.
         12    1    3    3    0    0  0.86206125066E+01  0.24450038142E+02  0.17967242500E+02  0.31542687396E+02  0.00000000000E+00 0. -1.
</event>
<event>
 7    1  0.9175399E-010  0.4778727E+02  0.7816164E-02  0.1312668E+00
        -11   -1    0    0    0    0  0.00000000000E+00  0.00000000000E+00  0.45593999997E+02  0.45594000000E+02  0.51100000000E-03 0. -1.
         11   -1    0    0    0    0 -0.00000000000E+00 -0.00000000000E+00 -0.45593999997E+02  0.45594000000E+02  0.51100000000E-03 0.  1.
    9900012    2    1    2    0    0 -0.92566470461E+01 -0.23062634697E+02  0.35581635931E+02  0.47787269024E+02  0.19999990787E+02 0.  0.
        -12    1    1    2    0    0  0.92566470461E+01  0.23062634697E+02 -0.35581635931E+02  0.43400730976E+02  0.00000000000E+00 0.  1.
         11    1    3    3    0    0 -0.73888725074E+01 -0.83925316816E+01  0.15049570088E+02  0.18748855566E+02  0.51100000000E-03 0. -1.
        -11    1    3    3    0    0 -0.40664576124E+01 -0.35867251380E+00  0.10922436325E+02  0.11660374738E+02  0.51100000000E-03 0.  1.
        -12    1    3    3    0    0  0.21986830737E+01 -0.14311430502E+02  0.96096295183E+01  0.17378038720E+02  0.00000000000E+00 0.  1.
</event>
<event>
 7    1  0.9175399E-010  0.4778723E+02  0.7816164E-02  0.1312668E+00
        -11   -1    0    0    0    0  0.00000000000E+00  0.00000000000E+00  0.45593999997E+02  0.45594000000E+02  0.51100000000E-03 0. -1.
         11   -1    0    0    0    0 -0.00000000000E+00 -0.00000000000E+00 -0.45593999997E+02  0.45594000000E+02  0.51100000000E-03 0.  1.
    9900012    2    1    2    0    0  0.19764459064E+01  0.10774337520E+02 -0.41995645435E+02  0.47787229006E+02  0.19999808328E+02 0.  0.
         12    1    1    2    0    0 -0.19764459064E+01 -0.10774337520E+02  0.41995645435E+02  0.43400770994E+02  0.00000000000E+00 0. -1.
         11    1    3    3    0    0 -0.23669321346E+01  0.50757245493E+00  0.12523235959E+01  0.27254930153E+01  0.51100000000E-03 0. -1.
        -11    1    3    3    0    0  0.54571453390E+01  0.57568731824E+01 -0.29620811497E+02  0.30664547903E+02  0.51100000000E-03 0.  1.
        -12    1    3    3    0    0 -0.11137672980E+01  0.45098918823E+01 -0.13627157534E+02  0.14397188088E+02  0.00000000000E+00 0.  1.
</event>
<event>
 7    1  0.9175399E-010  0.4778727E+02  0.7816164E-02  0.1312668E+00
        -11   -1    0    0    0    0  0.00000000000E+00  0.00000000000E+00  0.45593999997E+02  0.45594000000E+02  0.51100000000E-03 0.  1.
         11   -1    0    0    0    0 -0.00000000000E+00 -0.00000000000E+00 -0.45593999997E+02  0.45594000000E+02  0.51100000000E-03 0. -1.
    9900012    2    1    2    0    0 -0.30486549531E+02  0.26439627129E+02 -0.15973088992E+02  0.47787272391E+02  0.20000006141E+02 0.  0.
         12    1    1    2    0    0  0.30486549531E+02 -0.26439627129E+02  0.15973088992E+02  0.43400727609E+02  0.00000000000E+00 0. -1.
         11    1    3    3    0    0 -0.11181514742E+02 -0.82276525997E-01 -0.85171862496E+01  0.14056155350E+02  0.51100000000E-03 0. -1.
        -11    1    3    3    0    0 -0.12075824071E+01  0.11828934901E+01  0.86173150670E-01  0.16926069691E+01  0.51100000000E-03 0.  1.
         12    1    3    3    0    0 -0.18097452381E+02  0.25339010165E+02 -0.75420758926E+01  0.32038510072E+02  0.00000000000E+00 0. -1.
</event>
<event>
 7    1  0.9175399E-010  0.4778727E+02  0.7816164E-02  0.1312668E+00
        -11   -1    0    0    0    0  0.00000000000E+00  0.00000000000E+00  0.45593999997E+02  0.45594000000E+02  0.51100000000E-03 0.  1.
         11   -1    0    0    0    0 -0.00000000000E+00 -0.00000000000E+00 -0.45593999997E+02  0.45594000000E+02  0.51100000000E-03 0. -1.
    9900012    2    1    2    0    0 -0.14610167455E+01 -0.39702971692E+02  0.17468912121E+02  0.47787269340E+02  0.19999992229E+02 0.  0.
        -12    1    1    2    0    0  0.14610167455E+01  0.39702971692E+02 -0.17468912121E+02  0.43400730660E+02  0.00000000000E+00 0.  1.
         11    1    3    3    0    0 -0.17032754051E+01 -0.20732040024E+02  0.12129946329E+02  0.24080162559E+02  0.51100000000E-03 0. -1.
        -11    1    3    3    0    0  0.32806600431E+01  0.44267521207E+00  0.17060899393E+01  0.37241690085E+01  0.51100000000E-03 0.  1.
         12    1    3    3    0    0 -0.30384013835E+01 -0.19413606880E+02  0.36328758533E+01  0.19982937772E+02  0.00000000000E+00 0. -1.
</event>
<event>
 7    1  0.9175399E-010  0.4778728E+02  0.7816164E-02  0.1312668E+00
        -11   -1    0    0    0    0  0.00000000000E+00  0.00000000000E+00  0.45593999997E+02  0.45594000000E+02  0.51100000000E-03 0. -1.
         11   -1    0    0    0    0 -0.00000000000E+00 -0.00000000000E+00 -0.45593999997E+02  0.45594000000E+02  0.51100000000E-03 0.  1.
    9900012    2    1    2    0    0  0.27355685467E+02 -0.18332329927E+02  0.28270378321E+02  0.47787284126E+02  0.20000059644E+02 0.  0.
        -12    1    1    2    0    0 -0.27355685467E+02  0.18332329927E+02 -0.28270378321E+02  0.43400715874E+02  0.00000000000E+00 0.  1.
         11    1    3    3    0    0  0.10767348346E+02 -0.46176990504E+01  0.67051608262E+01  0.13498819092E+02  0.51100000000E-03 0. -1.
        -11    1    3    3    0    0  0.18848782669E+01  0.19166061089E+01 -0.12517387107E+01  0.29652984873E+01  0.51100000000E-03 0.  1.
        -12    1    3    3    0    0  0.14703458854E+02 -0.15631236986E+02  0.22816956206E+02  0.31323166546E+02  0.00000000000E+00 0.  1.
</event>
<event>
 7    1  0.9175399E-010  0.4778727E+02  0.7816164E-02  0.1312668E+00
        -11   -1    0    0    0    0  0.00000000000E+00  0.00000000000E+00  0.45593999997E+02  0.45594000000E+02  0.51100000000E-03 0. -1.
         11   -1    0    0    0    0 -0.00000000000E+00 -0.00000000000E+00 -0.45593999997E+02  0.45594000000E+02  0.51100000000E-03 0.  1.
    9900012    2    1    2    0    0 -0.93109748682E+01 -0.40384668738E+02 -0.12884400926E+02  0.47787268332E+02  0.19999987634E+02 0.  0.
         12    1    1    2    0    0  0.93109748682E+01  0.40384668738E+02  0.12884400926E+02  0.43400731668E+02  0.00000000000E+00 0. -1.
         11    1    3    3    0    0  0.13933948639E+01 -0.70497501682E+01  0.35407243512E+01  0.80110708319E+01  0.51100000000E-03 0. -1.
        -11    1    3    3    0    0 -0.91981090389E+01 -0.16018134083E+02 -0.56110526232E+01  0.19304655946E+02  0.51100000000E-03 0.  1.
         12    1    3    3    0    0 -0.15062606932E+01 -0.17316784486E+02 -0.10814072654E+02  0.20471541554E+02  0.00000000000E+00 0. -1.
</event>
<event>
 7    1  0.9175399E-010  0.4778727E+02  0.7816164E-02  0.1312668E+00
        -11   -1    0    0    0    0  0.00000000000E+00  0.00000000000E+00  0.45593999997E+02  0.45594000000E+02  0.51100000000E-03 0. -1.
         11   -1    0    0    0    0 -0.00000000000E+00 -0.00000000000E+00 -0.45593999997E+02  0.45594000000E+02  0.51100000000E-03 0.  1.
    9900012    2    1    2    0    0  0.15283251772E+02  0.40162074173E+02  0.60871226826E+01  0.47787273633E+02  0.20000011804E+02 0.  0.
        -12    1    1    2    0    0 -0.15283251772E+02 -0.40162074173E+02 -0.60871226826E+01  0.43400726367E+02  0.00000000000E+00 0.  1.
         11    1    3    3    0    0  0.18064816119E+00  0.11531632597E+02  0.57960049825E+01  0.12907550431E+02  0.51100000000E-03 0. -1.
        -11    1    3    3    0    0  0.12235891677E+02  0.11173999603E+02 -0.31256098620E+01  0.16862525005E+02  0.51100000000E-03 0.  1.
        -12    1    3    3    0    0  0.28667119343E+01  0.17456441973E+02  0.34167275622E+01  0.18017198198E+02  0.00000000000E+00 0.  1.
</event>
<event>
 7    1  0.9175399E-010  0.4778727E+02  0.7816164E-02  0.1312668E+00
        -11   -1    0    0    0    0  0.00000000000E+00  0.00000000000E+00  0.45593999997E+02  0.45594000000E+02  0.51100000000E-03 0. -1.
         11   -1    0    0    0    0 -0.00000000000E+00 -0.00000000000E+00 -0.45593999997E+02  0.45594000000E+02  0.51100000000E-03 0.  1.
    9900012    2    1    2    0    0  0.36144782756E+02  0.12447426944E+01 -0.23992262740E+02  0.47787269865E+02  0.19999994623E+02 0.  0.
         12    1    1    2    0    0 -0.36144782756E+02 -0.12447426944E+01  0.23992262740E+02  0.43400730135E+02  0.00000000000E+00 0. -1.
         11    1    3    3    0    0  0.41131808309E+01  0.69706463733E+00  0.75770079562E+00  0.42400785858E+01  0.51100000000E-03 0. -1.
        -11    1    3    3    0    0  0.21133349836E+02 -0.45782414534E+01 -0.83045885101E+01  0.23163440173E+02  0.51100000000E-03 0.  1.
        -12    1    3    3    0    0  0.10898252090E+02  0.51259195104E+01 -0.16445375025E+02  0.20383751106E+02  0.00000000000E+00 0.  1.
</event>
<event>
 7    1  0.9175399E-010  0.4778727E+02  0.7816164E-02  0.1312668E+00
        -11   -1    0    0    0    0  0.00000000000E+00  0.00000000000E+00  0.45593999997E+02  0.45594000000E+02  0.51100000000E-03 0. -1.
         11   -1    0    0    0    0 -0.00000000000E+00 -0.00000000000E+00 -0.45593999997E+02  0.45594000000E+02  0.51100000000E-03 0.  1.
    9900012    2    1    2    0    0 -0.27325923518E+02 -0.31196858591E+02  0.12793472174E+02  0.47787274058E+02  0.20000013738E+02 0.  0.
        -12    1    1    2    0    0  0.27325923518E+02  0.31196858591E+02 -0.12793472174E+02  0.43400725942E+02  0.00000000000E+00 0.  1.
         11    1    3    3    0    0 -0.17694057476E+02 -0.11138168671E+02  0.10304946560E+02  0.23309448625E+02  0.51100000000E-03 0. -1.
        -11    1    3    3    0    0 -0.46226384623E+01 -0.13030302141E+01 -0.52830431776E+00  0.48317470759E+01  0.51100000000E-03 0.  1.
         12    1    3    3    0    0 -0.50092275789E+01 -0.18755659707E+02  0.30168299311E+01  0.19646078357E+02  0.00000000000E+00 0. -1.
</event>
<event>
 7    1  0.9175399E-010  0.4778727E+02  0.7816164E-02  0.1312668E+00
        -11   -1    0    0    0    0  0.00000000000E+00  0.00000000000E+00  0.45593999997E+02  0.45594000000E+02  0.51100000000E-03 0. -1.
         11   -1    0    0    0    0 -0.00000000000E+00 -0.00000000000E+00 -0.45593999997E+02  0.45594000000E+02  0.51100000000E-03 0.  1.
    9900012    2    1    2    0    0 -0.24851862794E+02  0.20212452567E+02  0.29282505857E+02  0.47787268758E+02  0.19999989573E+02 0.  0.
        -12    1    1    2    0    0  0.24851862794E+02 -0.20212452567E+02 -0.29282505857E+02  0.43400731242E+02  0.00000000000E+00 0.  1.
         11    1    3    3    0    0 -0.15893026433E+02  0.13944091890E+02  0.18246029116E+02  0.27927469750E+02  0.51100000000E-03 0. -1.
        -11    1    3    3    0    0 -0.22407828147E+01 -0.19694425072E+01 -0.15689734136E+01  0.33706808282E+01  0.51100000000E-03 0.  1.
        -12    1    3    3    0    0 -0.67180535460E+01  0.82378031837E+01  0.12605450155E+02  0.16489118180E+02  0.00000000000E+00 0.  1.
</event>
<event>
 7    1  0.9175399E-010  0.4778727E+02  0.7816164E-02  0.1312668E+00
        -11   -1    0    0    0    0  0.00000000000E+00  0.00000000000E+00  0.45593999997E+02  0.45594000000E+02  0.51100000000E-03 0.  1.
         11   -1    0    0    0    0 -0.00000000000E+00 -0.00000000000E+00 -0.45593999997E+02  0.45594000000E+02  0.51100000000E-03 0. -1.
    9900012    2    1    2    0    0 -0.19888326088E+02  0.38574250223E+02  0.32429087389E+00  0.47787268906E+02  0.19999990251E+02 0.  0.
         12    1    1    2    0    0  0.19888326088E+02 -0.38574250223E+02 -0.32429087389E+00  0.43400731094E+02  0.00000000000E+00 0. -1.
         11    1    3    3    0    0 -0.18011205514E+02  0.24769412193E+02  0.62362338731E+00  0.30631947552E+02  0.51100000000E-03 0. -1.
        -11    1    3    3    0    0  0.11585845395E+01  0.11919825504E+02  0.29407190565E+01  0.12331763338E+02  0.51100000000E-03 0.  1.
        -12    1    3    3    0    0 -0.30357051138E+01  0.18850125263E+01 -0.32400515699E+01  0.48235580164E+01  0.00000000000E+00 0.  1.
</event>
<event>
 7    1  0.9175399E-010  0.4778727E+02  0.7816164E-02  0.1312668E+00
        -11   -1    0    0    0    0  0.00000000000E+00  0.00000000000E+00  0.45593999997E+02  0.45594000000E+02  0.51100000000E-03 0. -1.
         11   -1    0    0    0    0 -0.00000000000E+00 -0.00000000000E+00 -0.45593999997E+02  0.45594000000E+02  0.51100000000E-03 0.  1.
    9900012    2    1    2    0    0  0.23852409136E+02 -0.13816290488E+01  0.36232266997E+02  0.47787268530E+02  0.19999988535E+02 0.  0.
        -12    1    1    2    0    0 -0.23852409136E+02  0.13816290488E+01 -0.36232266997E+02  0.43400731470E+02  0.00000000000E+00 0.  1.
         11    1    3    3    0    0  0.92313882831E+01 -0.49203492852E+00  0.14837635018E+02  0.17481877508E+02  0.51100000000E-03 0. -1.
        -11    1    3    3    0    0  0.11978494687E+02 -0.75622636780E+01  0.12642742547E+02  0.18987130016E+02  0.51100000000E-03 0.  1.
        -12    1    3    3    0    0  0.26425261664E+01  0.66726695577E+01  0.87518894317E+01  0.11318261006E+02  0.00000000000E+00 0.  1.
</event>
<event>
 7    1  0.9175399E-010  0.4778728E+02  0.7816164E-02  0.1312668E+00
        -11   -1    0    0    0    0  0.00000000000E+00  0.00000000000E+00  0.45593999997E+02  0.45594000000E+02  0.51100000000E-03 0. -1.
         11   -1    0    0    0    0 -0.00000000000E+00 -0.00000000000E+00 -0.45593999997E+02  0.45594000000E+02  0.51100000000E-03 0.  1.
    9900012    2    1    2    0    0  0.22629673314E+02  0.34713915879E+01 -0.36870991871E+02  0.47787277478E+02  0.20000029335E+02 0.  0.
         12    1    1    2    0    0 -0.22629673314E+02 -0.34713915879E+01  0.36870991871E+02  0.43400722522E+02  0.00000000000E+00 0. -1.
         11    1    3    3    0    0  0.99742607501E+01  0.45192499640E+01 -0.54717344313E+01  0.12241297958E+02  0.51100000000E-03 0. -1.
        -11    1    3    3    0    0  0.64540285565E+01 -0.12914207134E+00 -0.27306608756E+02  0.28059259511E+02  0.51100000000E-03 0.  1.
         12    1    3    3    0    0  0.62013840072E+01 -0.91871630484E+00 -0.40926486833E+01  0.74867200094E+01  0.00000000000E+00 0. -1.
</event>
<event>
 7    1  0.9175399E-010  0.4778727E+02  0.7816164E-02  0.1312668E+00
        -11   -1    0    0    0    0  0.00000000000E+00  0.00000000000E+00  0.45593999997E+02  0.45594000000E+02  0.51100000000E-03 0. -1.
         11   -1    0    0    0    0 -0.00000000000E+00 -0.00000000000E+00 -0.45593999997E+02  0.45594000000E+02  0.51100000000E-03 0.  1.
    9900012    2    1    2    0    0  0.19466358755E+01  0.38190926453E+02 -0.20525275963E+02  0.47787271805E+02  0.20000003466E+02 0.  0.
         12    1    1    2    0    0 -0.19466358755E+01 -0.38190926453E+02  0.20525275963E+02  0.43400728195E+02  0.00000000000E+00 0. -1.
         11    1    3    3    0    0 -0.36507237557E+01  0.21444461017E+02 -0.20716193993E+02  0.30039197494E+02  0.51100000000E-03 0. -1.
        -11    1    3    3    0    0  0.47966684696E+01  0.15603784826E+02  0.44195480266E+00  0.16330384368E+02  0.51100000000E-03 0.  1.
        -12    1    3    3    0    0  0.80069116164E+00  0.11426806095E+01 -0.25103677259E+00  0.14176899424E+01  0.00000000000E+00 0.  1.
</event>
<event>
 7    1  0.1409838E-009  0.4778727E+02  0.7816164E-02  0.1312668E+00
        -11   -1    0    0    0    0  0.00000000000E+00  0.00000000000E+00  0.45593999997E+02  0.45594000000E+02  0.51100000000E-03 0. -1.
         11   -1    0    0    0    0 -0.00000000000E+00 -0.00000000000E+00 -0.45593999997E+02  0.45594000000E+02  0.51100000000E-03 0.  1.
    9900012    2    1    2    0    0  0.16968794789E+01 -0.19306466292E+02 -0.38833033881E+02  0.47787267737E+02  0.19999984918E+02 0.  0.
         12    1    1    2    0    0 -0.16968794789E+01  0.19306466292E+02  0.38833033881E+02  0.43400732263E+02  0.00000000000E+00 0. -1.
         11    1    3    3    0    0  0.42020181779E+01 -0.66014478189E+01 -0.16552988700E+01  0.79985051530E+01  0.51100000000E-03 0. -1.
        -11    1    3    3    0    0 -0.33945188071E+01 -0.10500735957E+02 -0.24232249176E+02  0.26626868272E+02  0.51100000000E-03 0.  1.
         12    1    3    3    0    0  0.88938010813E+00 -0.22042825159E+01 -0.12945485835E+02  0.13161894312E+02  0.00000000000E+00 0. -1.
</event>
<event>
 7    1  0.1129092E-009  0.4778726E+02  0.7816164E-02  0.1312668E+00
        -11   -1    0    0    0    0  0.00000000000E+00  0.00000000000E+00  0.45593999997E+02  0.45594000000E+02  0.51100000000E-03 0. -1.
         11   -1    0    0    0    0 -0.00000000000E+00 -0.00000000000E+00 -0.45593999997E+02  0.45594000000E+02  0.51100000000E-03 0.  1.
    9900012    2    1    2    0    0  0.33685808369E+01 -0.21458873771E+02 -0.37573842469E+02  0.47787259934E+02  0.19999949343E+02 0.  0.
         12    1    1    2    0    0 -0.33685808369E+01  0.21458873771E+02  0.37573842469E+02  0.43400740066E+02  0.00000000000E+00 0. -1.
         11    1    3    3    0    0 -0.51364233686E+01  0.52988067744E+00 -0.83143838927E+01  0.97873693263E+01  0.51100000000E-03 0. -1.
        -11    1    3    3    0    0  0.73871704853E+01 -0.12993326209E+02 -0.20704784869E+02  0.25535953682E+02  0.51100000000E-03 0.  1.
         12    1    3    3    0    0  0.11178337202E+01 -0.89954282387E+01 -0.85546737082E+01  0.12463936925E+02  0.00000000000E+00 0. -1.
</event>
<event>
 7    1  0.9175399E-010  0.4778727E+02  0.7816164E-02  0.1312668E+00
        -11   -1    0    0    0    0  0.00000000000E+00  0.00000000000E+00  0.45593999997E+02  0.45594000000E+02  0.51100000000E-03 0.  1.
         11   -1    0    0    0    0 -0.00000000000E+00 -0.00000000000E+00 -0.45593999997E+02  0.45594000000E+02  0.51100000000E-03 0. -1.
    9900012    2    1    2    0    0 -0.14967685280E+01 -0.32368041625E+02 -0.28873743656E+02  0.47787268355E+02  0.19999987736E+02 0.  0.
         12    1    1    2    0    0  0.14967685280E+01  0.32368041625E+02  0.28873743656E+02  0.43400731645E+02  0.00000000000E+00 0. -1.
         11    1    3    3    0    0  0.18356719487E-01  0.36186987341E+00  0.56100509203E+00  0.66784260783E+00  0.51100000000E-03 0. -1.
        -11    1    3    3    0    0  0.43650305456E+01 -0.62241241363E+01 -0.77529144718E+00  0.76416156680E+01  0.51100000000E-03 0.  1.
        -12    1    3    3    0    0 -0.58801557931E+01 -0.26505787362E+02 -0.28659457301E+02  0.39477810079E+02  0.00000000000E+00 0.  1.
</event>
<event>
 7    1  0.9175399E-010  0.4778726E+02  0.7816164E-02  0.1312668E+00
        -11   -1    0    0    0    0  0.00000000000E+00  0.00000000000E+00  0.45593999997E+02  0.45594000000E+02  0.51100000000E-03 0. -1.
         11   -1    0    0    0    0 -0.00000000000E+00 -0.00000000000E+00 -0.45593999997E+02  0.45594000000E+02  0.51100000000E-03 0.  1.
    9900012    2    1    2    0    0  0.33304525872E+02  0.16913521118E+02 -0.22098987396E+02  0.47787264014E+02  0.19999967948E+02 0.  0.
         12    1    1    2    0    0 -0.33304525872E+02 -0.16913521118E+02  0.22098987396E+02  0.43400735986E+02  0.00000000000E+00 0. -1.
         11    1    3    3    0    0  0.10631106084E+02  0.46526489070E+01 -0.17465517251E+02  0.20969307369E+02  0.51100000000E-03 0. -1.
        -11    1    3    3    0    0  0.15808008232E+02  0.69252277044E+01 -0.54148756695E+01  0.18087918117E+02  0.51100000000E-03 0.  1.
         12    1    3    3    0    0  0.68654115557E+01  0.53356445062E+01  0.78140552388E+00  0.87300385290E+01  0.00000000000E+00 0. -1.
</event>
<event>
 7    1  0.9175399E-010  0.4778727E+02  0.7816164E-02  0.1312668E+00
        -11   -1    0    0    0    0  0.00000000000E+00  0.00000000000E+00  0.45593999997E+02  0.45594000000E+02  0.51100000000E-03 0. -1.
         11   -1    0    0    0    0 -0.00000000000E+00 -0.00000000000E+00 -0.45593999997E+02  0.45594000000E+02  0.51100000000E-03 0.  1.
    9900012    2    1    2    0    0  0.95149242608E+01  0.17939251718E+02  0.38357177307E+02  0.47787267439E+02  0.19999983562E+02 0.  0.
        -12    1    1    2    0    0 -0.95149242608E+01 -0.17939251718E+02 -0.38357177307E+02  0.43400732561E+02  0.00000000000E+00 0.  1.
         11    1    3    3    0    0  0.96736888670E-01  0.96012282290E+01  0.15097038007E+02  0.17891715915E+02  0.51100000000E-03 0. -1.
        -11    1    3    3    0    0  0.40411158512E+01 -0.25746483654E+01  0.15979269084E+01  0.50510199162E+01  0.51100000000E-03 0.  1.
        -12    1    3    3    0    0  0.53770715209E+01  0.10912671854E+02  0.21662212391E+02  0.24844531608E+02  0.00000000000E+00 0.  1.
</event>
<event>
 7    1  0.9175399E-010  0.4778727E+02  0.7816164E-02  0.1312668E+00
        -11   -1    0    0    0    0  0.00000000000E+00  0.00000000000E+00  0.45593999997E+02  0.45594000000E+02  0.51100000000E-03 0. -1.
         11   -1    0    0    0    0 -0.00000000000E+00 -0.00000000000E+00 -0.45593999997E+02  0.45594000000E+02  0.51100000000E-03 0.  1.
    9900012    2    1    2    0    0  0.57846225521E+01  0.78904274715E+01  0.42283594621E+02  0.47787273303E+02  0.20000010297E+02 0.  0.
        -12    1    1    2    0    0 -0.57846225521E+01 -0.78904274715E+01 -0.42283594621E+02  0.43400726697E+02  0.00000000000E+00 0.  1.
         11    1    3    3    0    0 -0.48532895343E+01  0.22543688245E+01  0.51827127435E+01  0.74496382290E+01  0.51100000000E-03 0. -1.
        -11    1    3    3    0    0  0.10737735146E+02  0.20115236848E+01  0.33464033415E+02  0.35202083976E+02  0.51100000000E-03 0.  1.
        -12    1    3    3    0    0 -0.99823059661E-01  0.36245349623E+01  0.36368484628E+01  0.51355510977E+01  0.00000000000E+00 0.  1.
</event>
<event>
 7    1  0.9175399E-010  0.4778728E+02  0.7816164E-02  0.1312668E+00
        -11   -1    0    0    0    0  0.00000000000E+00  0.00000000000E+00  0.45593999997E+02  0.45594000000E+02  0.51100000000E-03 0. -1.
         11   -1    0    0    0    0 -0.00000000000E+00 -0.00000000000E+00 -0.45593999997E+02  0.45594000000E+02  0.51100000000E-03 0.  1.
    9900012    2    1    2    0    0 -0.31037469355E+02 -0.19103997432E+02 -0.23565550778E+02  0.47787281051E+02  0.20000045624E+02 0.  0.
         12    1    1    2    0    0  0.31037469355E+02  0.19103997432E+02  0.23565550778E+02  0.43400718949E+02  0.00000000000E+00 0. -1.
         11    1    3    3    0    0 -0.70175173378E+01 -0.13828994931E+02 -0.14407200019E+02  0.21167287570E+02  0.51100000000E-03 0. -1.
        -11    1    3    3    0    0 -0.92649737011E+01  0.71395842380E-01 -0.27131838753E+01  0.96543359197E+01  0.51100000000E-03 0.  1.
         12    1    3    3    0    0 -0.14754978316E+02 -0.53463983434E+01 -0.64451668829E+01  0.16965657562E+02  0.00000000000E+00 0. -1.
</event>
<event>
 7    1  0.9175399E-010  0.4778726E+02  0.7816164E-02  0.1312668E+00
        -11   -1    0    0    0    0  0.00000000000E+00  0.00000000000E+00  0.45593999997E+02  0.45594000000E+02  0.51100000000E-03 0. -1.
         11   -1    0    0    0    0 -0.00000000000E+00 -0.00000000000E+00 -0.45593999997E+02  0.45594000000E+02  0.51100000000E-03 0.  1.
    9900012    2    1    2    0    0  0.29126729271E+02 -0.28693886060E+02 -0.14557425681E+02  0.47787261553E+02  0.19999956726E+02 0.  0.
         12    1    1    2    0    0 -0.29126729271E+02  0.28693886060E+02  0.14557425681E+02  0.43400738447E+02  0.00000000000E+00 0. -1.
         11    1    3    3    0    0  0.20992490424E+02 -0.13689165597E+02 -0.11814176373E+02  0.27706545663E+02  0.51100000000E-03 0. -1.
        -11    1    3    3    0    0 -0.11472191265E+01 -0.58969246312E+01 -0.36770680979E+01  0.70434836472E+01  0.51100000000E-03 0.  1.
        -12    1    3    3    0    0  0.92814579733E+01 -0.91077958317E+01  0.93381878950E+00  0.13037232243E+02  0.00000000000E+00 0.  1.
</event>
<event>
 7    1  0.9175399E-010  0.4778727E+02  0.7816164E-02  0.1312668E+00
        -11   -1    0    0    0    0  0.00000000000E+00  0.00000000000E+00  0.45593999997E+02  0.45594000000E+02  0.51100000000E-03 0. -1.
         11   -1    0    0    0    0 -0.00000000000E+00 -0.00000000000E+00 -0.45593999997E+02  0.45594000000E+02  0.51100000000E-03 0.  1.
    9900012    2    1    2    0    0 -0.10122936382E+02  0.37221428850E+02  0.19892572927E+02  0.47787273459E+02  0.20000011009E+02 0.  0.
        -12    1    1    2    0    0  0.10122936382E+02 -0.37221428850E+02 -0.19892572927E+02  0.43400726541E+02  0.00000000000E+00 0.  1.
         11    1    3    3    0    0  0.28267604444E+01  0.49004152305E+01  0.46010662233E+01  0.72920816434E+01  0.51100000000E-03 0. -1.
        -11    1    3    3    0    0 -0.14859972104E+02  0.22696532156E+02  0.14206586404E+02  0.30623168359E+02  0.51100000000E-03 0.  1.
        -12    1    3    3    0    0  0.19102752768E+01  0.96244814631E+01  0.10849202993E+01  0.98720234564E+01  0.00000000000E+00 0.  1.
</event>
<event>
 7    1  0.9175399E-010  0.4778727E+02  0.7816164E-02  0.1312668E+00
        -11   -1    0    0    0    0  0.00000000000E+00  0.00000000000E+00  0.45593999997E+02  0.45594000000E+02  0.51100000000E-03 0. -1.
         11   -1    0    0    0    0 -0.00000000000E+00 -0.00000000000E+00 -0.45593999997E+02  0.45594000000E+02  0.51100000000E-03 0.  1.
    9900012    2    1    2    0    0 -0.16903471325E+02  0.30275010828E+02  0.26102097735E+02  0.47787272706E+02  0.20000007577E+02 0.  0.
        -12    1    1    2    0    0  0.16903471325E+02 -0.30275010828E+02 -0.26102097735E+02  0.43400727294E+02  0.00000000000E+00 0.  1.
         11    1    3    3    0    0 -0.99329803546E+01  0.11461467218E+02  0.57443860128E+01  0.16218116427E+02  0.51100000000E-03 0. -1.
        -11    1    3    3    0    0  0.49094661411E+00  0.10394405747E+02  0.16815718809E+02  0.19775062547E+02  0.51100000000E-03 0.  1.
        -12    1    3    3    0    0 -0.74614375840E+01  0.84191378630E+01  0.35419929134E+01  0.11794093733E+02  0.00000000000E+00 0.  1.
</event>
<event>
 7    1  0.9175399E-010  0.4778727E+02  0.7816164E-02  0.1312668E+00
        -11   -1    0    0    0    0  0.00000000000E+00  0.00000000000E+00  0.45593999997E+02  0.45594000000E+02  0.51100000000E-03 0. -1.
         11   -1    0    0    0    0 -0.00000000000E+00 -0.00000000000E+00 -0.45593999997E+02  0.45594000000E+02  0.51100000000E-03 0.  1.
    9900012    2    1    2    0    0  0.32092283749E+02 -0.77275996111E+01 -0.28177880823E+02  0.47787269134E+02  0.19999991290E+02 0.  0.
         12    1    1    2    0    0 -0.32092283749E+02  0.77275996111E+01  0.28177880823E+02  0.43400730866E+02  0.00000000000E+00 0. -1.
         11    1    3    3    0    0  0.13063702681E+02  0.59834251504E+00 -0.30402874552E+01  0.13426156917E+02  0.51100000000E-03 0. -1.
        -11    1    3    3    0    0  0.16469123415E+02 -0.93262310990E+01 -0.15885359680E+02  0.24709416525E+02  0.51100000000E-03 0.  1.
         12    1    3    3    0    0  0.25594576535E+01  0.10002889728E+01 -0.92522336881E+01  0.96516956919E+01  0.00000000000E+00 0. -1.
</event>
<event>
 7    1  0.9175399E-010  0.4778726E+02  0.7816164E-02  0.1312668E+00
        -11   -1    0    0    0    0  0.00000000000E+00  0.00000000000E+00  0.45593999997E+02  0.45594000000E+02  0.51100000000E-03 0. -1.
         11   -1    0    0    0    0 -0.00000000000E+00 -0.00000000000E+00 -0.45593999997E+02  0.45594000000E+02  0.51100000000E-03 0.  1.
    9900012    2    1    2    0    0  0.18717939108E+02  0.27915946150E+02  0.27458380406E+02  0.47787263274E+02  0.19999964570E+02 0.  0.
        -12    1    1    2    0    0 -0.18717939108E+02 -0.27915946150E+02 -0.27458380406E+02  0.43400736726E+02  0.00000000000E+00 0.  1.
         11    1    3    3    0    0  0.63874069343E+01  0.75005011666E+01  0.79131929095E+01  0.12636261606E+02  0.51100000000E-03 0. -1.
        -11    1    3    3    0    0  0.13124539930E+02  0.13390430750E+02  0.56864616865E+01  0.19593188378E+02  0.51100000000E-03 0.  1.
        -12    1    3    3    0    0 -0.79400775584E+00  0.70250142327E+01  0.13858725810E+02  0.15557813290E+02  0.00000000000E+00 0.  1.
</event>
<event>
 7    1  0.9175399E-010  0.4778727E+02  0.7816164E-02  0.1312668E+00
        -11   -1    0    0    0    0  0.00000000000E+00  0.00000000000E+00  0.45593999997E+02  0.45594000000E+02  0.51100000000E-03 0. -1.
         11   -1    0    0    0    0 -0.00000000000E+00 -0.00000000000E+00 -0.45593999997E+02  0.45594000000E+02  0.51100000000E-03 0.  1.
    9900012    2    1    2    0    0 -0.35167545316E+02 -0.64026059553E+01 -0.24614502495E+02  0.47787270287E+02  0.19999996544E+02 0.  0.
         12    1    1    2    0    0  0.35167545316E+02  0.64026059553E+01  0.24614502495E+02  0.43400729713E+02  0.00000000000E+00 0. -1.
         11    1    3    3    0    0 -0.96451882289E+01 -0.34316066174E+01 -0.16869866124E+02  0.19733169114E+02  0.51100000000E-03 0. -1.
        -11    1    3    3    0    0 -0.20806752015E+02  0.45627986222E+00 -0.41993926359E+01  0.21231203910E+02  0.51100000000E-03 0.  1.
        -12    1    3    3    0    0 -0.47156050727E+01 -0.34272792001E+01 -0.35452437346E+01  0.68228972625E+01  0.00000000000E+00 0.  1.
</event>
<event>
 7    1  0.9175399E-010  0.4778727E+02  0.7816164E-02  0.1312668E+00
        -11   -1    0    0    0    0  0.00000000000E+00  0.00000000000E+00  0.45593999997E+02  0.45594000000E+02  0.51100000000E-03 0. -1.
         11   -1    0    0    0    0 -0.00000000000E+00 -0.00000000000E+00 -0.45593999997E+02  0.45594000000E+02  0.51100000000E-03 0.  1.
    9900012    2    1    2    0    0 -0.90761317447E+01  0.10288385311E+02 -0.41175189490E+02  0.47787271097E+02  0.20000000240E+02 0.  0.
         12    1    1    2    0    0  0.90761317447E+01 -0.10288385311E+02  0.41175189490E+02  0.43400728903E+02  0.00000000000E+00 0. -1.
         11    1    3    3    0    0 -0.60014312075E+01  0.96956640389E+01 -0.20984167435E+02  0.23882176636E+02  0.51100000000E-03 0.  1.
        -11    1    3    3    0    0  0.15357671998E+01 -0.49086010518E+01 -0.53603164445E+01  0.74287238355E+01  0.51100000000E-03 0. -1.
         12    1    3    3    0    0 -0.46104677370E+01  0.55013223239E+01 -0.14830705611E+02  0.16476370626E+02  0.00000000000E+00 0. -1.
</event>
<event>
 7    1  0.9175399E-010  0.4778727E+02  0.7816164E-02  0.1312668E+00
        -11   -1    0    0    0    0  0.00000000000E+00  0.00000000000E+00  0.45593999997E+02  0.45594000000E+02  0.51100000000E-03 0. -1.
         11   -1    0    0    0    0 -0.00000000000E+00 -0.00000000000E+00 -0.45593999997E+02  0.45594000000E+02  0.51100000000E-03 0.  1.
    9900012    2    1    2    0    0 -0.23052991008E+01  0.13583493473E+02  0.41155770364E+02  0.47787272666E+02  0.20000007391E+02 0.  0.
        -12    1    1    2    0    0  0.23052991008E+01 -0.13583493473E+02 -0.41155770364E+02  0.43400727334E+02  0.00000000000E+00 0.  1.
         11    1    3    3    0    0  0.35143217457E+01  0.11558206382E+02  0.20491914222E+02  0.23787835985E+02  0.51100000000E-03 0.  1.
        -11    1    3    3    0    0 -0.30576328299E+01 -0.31263635003E+01  0.27735364579E+01  0.51783947322E+01  0.51100000000E-03 0. -1.
         12    1    3    3    0    0 -0.27619880166E+01  0.51516505913E+01  0.17890319684E+02  0.18821041948E+02  0.00000000000E+00 0. -1.
</event>
<event>
 7    1  0.9175399E-010  0.4778726E+02  0.7816164E-02  0.1312668E+00
        -11   -1    0    0    0    0  0.00000000000E+00  0.00000000000E+00  0.45593999997E+02  0.45594000000E+02  0.51100000000E-03 0. -1.
         11   -1    0    0    0    0 -0.00000000000E+00 -0.00000000000E+00 -0.45593999997E+02  0.45594000000E+02  0.51100000000E-03 0.  1.
    9900012    2    1    2    0    0 -0.14972813534E+02 -0.38330131700E+02  0.13792758640E+02  0.47787258853E+02  0.19999944414E+02 0.  0.
        -12    1    1    2    0    0  0.14972813534E+02  0.38330131700E+02 -0.13792758640E+02  0.43400741147E+02  0.00000000000E+00 0.  1.
         11    1    3    3    0    0 -0.27712334658E+01  0.15445154371E+01 -0.36246657361E+00  0.31932186170E+01  0.51100000000E-03 0.  1.
        -11    1    3    3    0    0 -0.23041538653E+01 -0.38827882145E+01  0.36784131229E+01  0.58237352891E+01  0.51100000000E-03 0. -1.
         12    1    3    3    0    0 -0.98974262025E+01 -0.35991858922E+02  0.10476812090E+02  0.38770304947E+02  0.00000000000E+00 0. -1.
</event>
<event>
 7    1  0.9175399E-010  0.4778727E+02  0.7816164E-02  0.1312668E+00
        -11   -1    0    0    0    0  0.00000000000E+00  0.00000000000E+00  0.45593999997E+02  0.45594000000E+02  0.51100000000E-03 0. -1.
         11   -1    0    0    0    0 -0.00000000000E+00 -0.00000000000E+00 -0.45593999997E+02  0.45594000000E+02  0.51100000000E-03 0.  1.
    9900012    2    1    2    0    0 -0.17665870684E+02 -0.24243465325E+02  0.31365499336E+02  0.47787272511E+02  0.20000006686E+02 0.  0.
        -12    1    1    2    0    0  0.17665870684E+02  0.24243465325E+02 -0.31365499336E+02  0.43400727489E+02  0.00000000000E+00 0.  1.
         11    1    3    3    0    0  0.26485954453E+01 -0.50702033556E+01  0.97111327362E+01  0.11270675187E+02  0.51100000000E-03 0.  1.
        -11    1    3    3    0    0 -0.46251554986E+01 -0.10475377941E+02  0.89733149721E+01  0.14548057886E+02  0.51100000000E-03 0. -1.
         12    1    3    3    0    0 -0.15689310631E+02 -0.86978840280E+01  0.12681051628E+02  0.21968539438E+02  0.00000000000E+00 0. -1.
</event>
<event>
 7    1  0.9175399E-010  0.4778727E+02  0.7816164E-02  0.1312668E+00
        -11   -1    0    0    0    0  0.00000000000E+00  0.00000000000E+00  0.45593999997E+02  0.45594000000E+02  0.51100000000E-03 0.  1.
         11   -1    0    0    0    0 -0.00000000000E+00 -0.00000000000E+00 -0.45593999997E+02  0.45594000000E+02  0.51100000000E-03 0. -1.
    9900012    2    1    2    0    0 -0.28577484348E+02 -0.28580361274E+02  0.15814978747E+02  0.47787271723E+02  0.20000003094E+02 0.  0.
        -12    1    1    2    0    0  0.28577484348E+02  0.28580361274E+02 -0.15814978747E+02  0.43400728277E+02  0.00000000000E+00 0.  1.
         11    1    3    3    0    0 -0.25223258162E+01  0.14350510926E+01 -0.15249905846E+01  0.32782763315E+01  0.51100000000E-03 0. -1.
        -11    1    3    3    0    0 -0.16896209823E+02 -0.15553920540E+02  0.14492757684E+02  0.27155963914E+02  0.51100000000E-03 0.  1.
         12    1    3    3    0    0 -0.91589487083E+01 -0.14461491827E+02  0.28472116478E+01  0.17353031478E+02  0.00000000000E+00 0. -1.
</event>
<event>
 7    1  0.9175399E-010  0.4778727E+02  0.7816164E-02  0.1312668E+00
        -11   -1    0    0    0    0  0.00000000000E+00  0.00000000000E+00  0.45593999997E+02  0.45594000000E+02  0.51100000000E-03 0. -1.
         11   -1    0    0    0    0 -0.00000000000E+00 -0.00000000000E+00 -0.45593999997E+02  0.45594000000E+02  0.51100000000E-03 0.  1.
    9900012    2    1    2    0    0  0.62564020343E+01  0.28674283586E+02 -0.31972895654E+02  0.47787272333E+02  0.20000005873E+02 0.  0.
         12    1    1    2    0    0 -0.62564020343E+01 -0.28674283586E+02  0.31972895654E+02  0.43400727667E+02  0.00000000000E+00 0. -1.
         11    1    3    3    0    0 -0.39824547069E+00  0.11366075639E+01  0.10497070005E+01  0.15976111096E+01  0.51100000000E-03 0. -1.
        -11    1    3    3    0    0  0.28652387604E+01  0.16067972443E+02 -0.75191512787E+01  0.17970168831E+02  0.51100000000E-03 0.  1.
        -12    1    3    3    0    0  0.37894087446E+01  0.11469703579E+02 -0.25503451376E+02  0.28219492392E+02  0.00000000000E+00 0.  1.
</event>
<event>
 7    1  0.9175399E-010  0.4778727E+02  0.7816164E-02  0.1312668E+00
        -11   -1    0    0    0    0  0.00000000000E+00  0.00000000000E+00  0.45593999997E+02  0.45594000000E+02  0.51100000000E-03 0.  1.
         11   -1    0    0    0    0 -0.00000000000E+00 -0.00000000000E+00 -0.45593999997E+02  0.45594000000E+02  0.51100000000E-03 0. -1.
    9900012    2    1    2    0    0 -0.30136785411E+02 -0.30968909988E+02  0.40403307289E+01  0.47787268519E+02  0.19999988484E+02 0.  0.
        -12    1    1    2    0    0  0.30136785411E+02  0.30968909988E+02 -0.40403307289E+01  0.43400731481E+02  0.00000000000E+00 0.  1.
         11    1    3    3    0    0 -0.41883753681E+01 -0.18204237229E+01  0.15765167597E+00  0.45696044760E+01  0.51100000000E-03 0. -1.
        -11    1    3    3    0    0 -0.25414261953E+02 -0.24153172657E+02 -0.24358780658E+01  0.35145326321E+02  0.51100000000E-03 0.  1.
        -12    1    3    3    0    0 -0.53414808935E+00 -0.49953136082E+01  0.63185571187E+01  0.80723377214E+01  0.00000000000E+00 0.  1.
</event>
<event>
 7    1  0.9175399E-010  0.4778727E+02  0.7816164E-02  0.1312668E+00
        -11   -1    0    0    0    0  0.00000000000E+00  0.00000000000E+00  0.45593999997E+02  0.45594000000E+02  0.51100000000E-03 0.  1.
         11   -1    0    0    0    0 -0.00000000000E+00 -0.00000000000E+00 -0.45593999997E+02  0.45594000000E+02  0.51100000000E-03 0. -1.
    9900012    2    1    2    0    0  0.13250039947E+02  0.35143524853E+02 -0.21748385368E+02  0.47787272313E+02  0.20000005783E+02 0.  0.
         12    1    1    2    0    0 -0.13250039947E+02 -0.35143524853E+02  0.21748385368E+02  0.43400727687E+02  0.00000000000E+00 0. -1.
         11    1    3    3    0    0  0.12222401702E+02  0.19414393371E+02 -0.55883733935E+01  0.23612193688E+02  0.51100000000E-03 0. -1.
        -11    1    3    3    0    0  0.14345698163E+01  0.10035439758E+02 -0.42977439255E+01  0.11010842148E+02  0.51100000000E-03 0.  1.
         12    1    3    3    0    0 -0.40693157128E+00  0.56936917235E+01 -0.11862268049E+02  0.13164236476E+02  0.00000000000E+00 0. -1.
</event>
<event>
 7    1  0.9175399E-010  0.4778729E+02  0.7816164E-02  0.1312668E+00
        -11   -1    0    0    0    0  0.00000000000E+00  0.00000000000E+00  0.45593999997E+02  0.45594000000E+02  0.51100000000E-03 0. -1.
         11   -1    0    0    0    0 -0.00000000000E+00 -0.00000000000E+00 -0.45593999997E+02  0.45594000000E+02  0.51100000000E-03 0.  1.
    9900012    2    1    2    0    0  0.40272161230E+02 -0.65731111695E+01  0.14784085063E+02  0.47787286507E+02  0.20000070500E+02 0.  0.
        -12    1    1    2    0    0 -0.40272161230E+02  0.65731111695E+01 -0.14784085063E+02  0.43400713493E+02  0.00000000000E+00 0.  1.
         11    1    3    3    0    0  0.48448055365E+01  0.44980153038E+01  0.95279341709E+00  0.66792288415E+01  0.51100000000E-03 0. -1.
        -11    1    3    3    0    0  0.10380842895E+01 -0.23974144509E+01 -0.81486913951E+00  0.27366452121E+01  0.51100000000E-03 0.  1.
         12    1    3    3    0    0  0.34389271404E+02 -0.86737120224E+01  0.14646160785E+02  0.38371412453E+02  0.00000000000E+00 0. -1.
</event>
<event>
 7    1  0.9175399E-010  0.4778727E+02  0.7816164E-02  0.1312668E+00
        -11   -1    0    0    0    0  0.00000000000E+00  0.00000000000E+00  0.45593999997E+02  0.45594000000E+02  0.51100000000E-03 0.  1.
         11   -1    0    0    0    0 -0.00000000000E+00 -0.00000000000E+00 -0.45593999997E+02  0.45594000000E+02  0.51100000000E-03 0. -1.
    9900012    2    1    2    0    0 -0.17529528735E+02  0.38290641848E+02 -0.10495978244E+02  0.47787272009E+02  0.20000004399E+02 0.  0.
        -12    1    1    2    0    0  0.17529528735E+02 -0.38290641848E+02  0.10495978244E+02  0.43400727991E+02  0.00000000000E+00 0.  1.
         11    1    3    3    0    0 -0.11941763343E+02  0.34813229636E+02 -0.11140287688E+02  0.38453513226E+02  0.51100000000E-03 0. -1.
        -11    1    3    3    0    0 -0.64563605043E+01  0.17215544077E+01 -0.10249092402E+01  0.67600872592E+01  0.51100000000E-03 0.  1.
        -12    1    3    3    0    0  0.86859511185E+00  0.17558578044E+01  0.16692186839E+01  0.25736715237E+01  0.00000000000E+00 0.  1.
</event>
<event>
 7    1  0.9175399E-010  0.4778727E+02  0.7816164E-02  0.1312668E+00
        -11   -1    0    0    0    0  0.00000000000E+00  0.00000000000E+00  0.45593999997E+02  0.45594000000E+02  0.51100000000E-03 0.  1.
         11   -1    0    0    0    0 -0.00000000000E+00 -0.00000000000E+00 -0.45593999997E+02  0.45594000000E+02  0.51100000000E-03 0. -1.
    9900012    2    1    2    0    0 -0.10337901388E+02 -0.35595721003E+02 -0.22576448327E+02  0.47787267542E+02  0.19999984030E+02 0.  0.
         12    1    1    2    0    0  0.10337901388E+02  0.35595721003E+02  0.22576448327E+02  0.43400732458E+02  0.00000000000E+00 0. -1.
         11    1    3    3    0    0  0.20328708648E+01 -0.12399900819E+02  0.25125741228E+00  0.12567944733E+02  0.51100000000E-03 0. -1.
        -11    1    3    3    0    0 -0.81474385141E+01 -0.11721860284E+02 -0.95799477591E+01  0.17191805088E+02  0.51100000000E-03 0.  1.
         12    1    3    3    0    0 -0.42233337392E+01 -0.11473959900E+02 -0.13247757980E+02  0.18027517721E+02  0.00000000000E+00 0. -1.
</event>
<event>
 7    1  0.9175399E-010  0.4778726E+02  0.7816164E-02  0.1312668E+00
        -11   -1    0    0    0    0  0.00000000000E+00  0.00000000000E+00  0.45593999997E+02  0.45594000000E+02  0.51100000000E-03 0. -1.
         11   -1    0    0    0    0 -0.00000000000E+00 -0.00000000000E+00 -0.45593999997E+02  0.45594000000E+02  0.51100000000E-03 0.  1.
    9900012    2    1    2    0    0 -0.38088591944E+01 -0.25747041817E+02  0.34730479889E+02  0.47787264937E+02  0.19999972155E+02 0.  0.
        -12    1    1    2    0    0  0.38088591944E+01  0.25747041817E+02 -0.34730479889E+02  0.43400735063E+02  0.00000000000E+00 0.  1.
         11    1    3    3    0    0 -0.82347678331E+01 -0.34672241827E+01  0.84683869324E+01  0.12310427381E+02  0.51100000000E-03 0. -1.
        -11    1    3    3    0    0  0.57340328530E+01 -0.21504983119E+02  0.25205881333E+02  0.33625583798E+02  0.51100000000E-03 0.  1.
        -12    1    3    3    0    0 -0.13081242143E+01 -0.77483451519E+00  0.10562116234E+01  0.18512537587E+01  0.00000000000E+00 0.  1.
</event>
<event>
 7    1  0.9175399E-010  0.4778730E+02  0.7816164E-02  0.1312668E+00
        -11   -1    0    0    0    0  0.00000000000E+00  0.00000000000E+00  0.45593999997E+02  0.45594000000E+02  0.51100000000E-03 0. -1.
         11   -1    0    0    0    0 -0.00000000000E+00 -0.00000000000E+00 -0.45593999997E+02  0.45594000000E+02  0.51100000000E-03 0.  1.
    9900012    2    1    2    0    0 -0.26048042136E+02  0.30306301347E+02  0.16930680627E+02  0.47787304764E+02  0.20000153742E+02 0.  0.
        -12    1    1    2    0    0  0.26048042136E+02 -0.30306301347E+02 -0.16930680627E+02  0.43400695236E+02  0.00000000000E+00 0.  1.
         11    1    3    3    0    0 -0.19658929959E+02  0.25515372162E+02  0.96231295466E+01  0.33617143933E+02  0.51100000000E-03 0. -1.
        -11    1    3    3    0    0 -0.10129984929E+01 -0.17899520905E+01  0.49366128814E+01  0.53479193557E+01  0.51100000000E-03 0.  1.
        -12    1    3    3    0    0 -0.53761136845E+01  0.65808812756E+01  0.23709381985E+01  0.88222414756E+01  0.00000000000E+00 0.  1.
</event>
<event>
 7    1  0.9175399E-010  0.4778727E+02  0.7816164E-02  0.1312668E+00
        -11   -1    0    0    0    0  0.00000000000E+00  0.00000000000E+00  0.45593999997E+02  0.45594000000E+02  0.51100000000E-03 0. -1.
         11   -1    0    0    0    0 -0.00000000000E+00 -0.00000000000E+00 -0.45593999997E+02  0.45594000000E+02  0.51100000000E-03 0.  1.
    9900012    2    1    2    0    0 -0.16561206621E+02 -0.31970266574E+01  0.39989104208E+02  0.47787274205E+02  0.20000014408E+02 0.  0.
        -12    1    1    2    0    0  0.16561206621E+02  0.31970266574E+01 -0.39989104208E+02  0.43400725795E+02  0.00000000000E+00 0.  1.
         11    1    3    3    0    0 -0.61685781829E+01  0.40979896558E+01  0.23160385040E+01  0.77594400978E+01  0.51100000000E-03 0. -1.
        -11    1    3    3    0    0 -0.99428217385E+01 -0.49103817135E+01  0.30281453999E+02  0.32248069853E+02  0.51100000000E-03 0.  1.
        -12    1    3    3    0    0 -0.44980669977E+00 -0.23846345997E+01  0.73916117055E+01  0.77797642539E+01  0.00000000000E+00 0.  1.
</event>
<event>
 7    1  0.1176378E-009  0.4778727E+02  0.7816164E-02  0.1312668E+00
        -11   -1    0    0    0    0  0.00000000000E+00  0.00000000000E+00  0.45593999997E+02  0.45594000000E+02  0.51100000000E-03 0. -1.
         11   -1    0    0    0    0 -0.00000000000E+00 -0.00000000000E+00 -0.45593999997E+02  0.45594000000E+02  0.51100000000E-03 0.  1.
    9900012    2    1    2    0    0 -0.28233490766E+01  0.16210369066E+01 -0.43278448485E+02  0.47787272311E+02  0.20000005774E+02 0.  0.
         12    1    1    2    0    0  0.28233490766E+01 -0.16210369066E+01  0.43278448485E+02  0.43400727689E+02  0.00000000000E+00 0. -1.
         11    1    3    3    0    0 -0.60357750960E+01 -0.32885277290E+01 -0.14015993585E+02  0.15610671737E+02  0.51100000000E-03 0.  1.
        -11    1    3    3    0    0  0.58609774731E+01  0.16929406021E+00 -0.23655271550E+02  0.24371122046E+02  0.51100000000E-03 0. -1.
         12    1    3    3    0    0 -0.26485514537E+01  0.47402705755E+01 -0.56071833503E+01  0.78054785283E+01  0.00000000000E+00 0. -1.
</event>
<event>
 7    1  0.9175399E-010  0.4778727E+02  0.7816164E-02  0.1312668E+00
        -11   -1    0    0    0    0  0.00000000000E+00  0.00000000000E+00  0.45593999997E+02  0.45594000000E+02  0.51100000000E-03 0.  1.
         11   -1    0    0    0    0 -0.00000000000E+00 -0.00000000000E+00 -0.45593999997E+02  0.45594000000E+02  0.51100000000E-03 0. -1.
    9900012    2    1    2    0    0  0.26122840820E+02  0.34465982158E+02 -0.36491717971E+01  0.47787271971E+02  0.20000004225E+02 0.  0.
         12    1    1    2    0    0 -0.26122840820E+02 -0.34465982158E+02  0.36491717971E+01  0.43400728029E+02  0.00000000000E+00 0. -1.
         11    1    3    3    0    0  0.15751468726E+02  0.68777313799E+01  0.28880294599E+01  0.17428501668E+02  0.51100000000E-03 0. -1.
        -11    1    3    3    0    0  0.69233582262E-01  0.27924154668E+01 -0.73097481196E+00  0.28873347338E+01  0.51100000000E-03 0.  1.
         12    1    3    3    0    0  0.10302138512E+02  0.24795835311E+02 -0.58062264451E+01  0.27471435569E+02  0.00000000000E+00 0. -1.
</event>
<event>
 7    1  0.9175399E-010  0.4778727E+02  0.7816164E-02  0.1312668E+00
        -11   -1    0    0    0    0  0.00000000000E+00  0.00000000000E+00  0.45593999997E+02  0.45594000000E+02  0.51100000000E-03 0.  1.
         11   -1    0    0    0    0 -0.00000000000E+00 -0.00000000000E+00 -0.45593999997E+02  0.45594000000E+02  0.51100000000E-03 0. -1.
    9900012    2    1    2    0    0 -0.27376888725E+02  0.26971446818E+02 -0.20166068293E+02  0.47787270858E+02  0.19999999149E+02 0.  0.
         12    1    1    2    0    0  0.27376888725E+02 -0.26971446818E+02  0.20166068293E+02  0.43400729142E+02  0.00000000000E+00 0. -1.
         11    1    3    3    0    0 -0.13478011491E+02  0.10093187419E+02 -0.12043462910E+02  0.20702034324E+02  0.51100000000E-03 0. -1.
        -11    1    3    3    0    0 -0.51715493160E+01  0.16289382180E+02 -0.54748134832E+01  0.17946099216E+02  0.51100000000E-03 0.  1.
        -12    1    3    3    0    0 -0.87273279174E+01  0.58887721781E+00 -0.26477918994E+01  0.91391373170E+01  0.00000000000E+00 0.  1.
</event>
<event>
 7    1  0.9175399E-010  0.4778727E+02  0.7816164E-02  0.1312668E+00
        -11   -1    0    0    0    0  0.00000000000E+00  0.00000000000E+00  0.45593999997E+02  0.45594000000E+02  0.51100000000E-03 0. -1.
         11   -1    0    0    0    0 -0.00000000000E+00 -0.00000000000E+00 -0.45593999997E+02  0.45594000000E+02  0.51100000000E-03 0.  1.
    9900012    2    1    2    0    0 -0.36930071022E+02 -0.81384482789E+01 -0.21296919195E+02  0.47787271282E+02  0.20000001083E+02 0.  0.
         12    1    1    2    0    0  0.36930071022E+02  0.81384482789E+01  0.21296919195E+02  0.43400728718E+02  0.00000000000E+00 0. -1.
         11    1    3    3    0    0 -0.34094144214E+02 -0.32295744220E+01 -0.21599834632E+02  0.40489426731E+02  0.51100000000E-03 0. -1.
        -11    1    3    3    0    0 -0.24339597167E+01 -0.20605774982E+00 -0.54397657147E+00  0.25025048392E+01  0.51100000000E-03 0.  1.
         12    1    3    3    0    0 -0.40196709112E+00 -0.47028161071E+01  0.84689200789E+00  0.47953397119E+01  0.00000000000E+00 0. -1.
</event>
<event>
 7    1  0.9175399E-010  0.4778728E+02  0.7816164E-02  0.1312668E+00
        -11   -1    0    0    0    0  0.00000000000E+00  0.00000000000E+00  0.45593999997E+02  0.45594000000E+02  0.51100000000E-03 0. -1.
         11   -1    0    0    0    0 -0.00000000000E+00 -0.00000000000E+00 -0.45593999997E+02  0.45594000000E+02  0.51100000000E-03 0.  1.
    9900012    2    1    2    0    0 -0.19521644275E+02 -0.22535368245E+02  0.31538632896E+02  0.47787276710E+02  0.20000025833E+02 0.  0.
        -12    1    1    2    0    0  0.19521644275E+02  0.22535368245E+02 -0.31538632896E+02  0.43400723290E+02  0.00000000000E+00 0.  1.
         11    1    3    3    0    0 -0.12206784509E+02 -0.40071331352E+01  0.65699443714E+01  0.14430068375E+02  0.51100000000E-03 0. -1.
        -11    1    3    3    0    0  0.55058822753E+00 -0.90623388369E+01  0.14935463434E+02  0.17478478219E+02  0.51100000000E-03 0.  1.
        -12    1    3    3    0    0 -0.78654479934E+01 -0.94658962731E+01  0.10033225090E+02  0.15878730116E+02  0.00000000000E+00 0.  1.
</event>
<event>
 7    1  0.9175399E-010  0.4778727E+02  0.7816164E-02  0.1312668E+00
        -11   -1    0    0    0    0  0.00000000000E+00  0.00000000000E+00  0.45593999997E+02  0.45594000000E+02  0.51100000000E-03 0. -1.
         11   -1    0    0    0    0 -0.00000000000E+00 -0.00000000000E+00 -0.45593999997E+02  0.45594000000E+02  0.51100000000E-03 0.  1.
    9900012    2    1    2    0    0  0.14235840214E+02  0.31901943188E+02 -0.25753252302E+02  0.47787272704E+02  0.20000007565E+02 0.  0.
         12    1    1    2    0    0 -0.14235840214E+02 -0.31901943188E+02  0.25753252302E+02  0.43400727296E+02  0.00000000000E+00 0. -1.
         11    1    3    3    0    0  0.38847874550E+00 -0.48136344501E+00  0.37457041279E+00  0.72313882288E+00  0.51100000000E-03 0. -1.
        -11    1    3    3    0    0  0.41399939009E+00  0.18723765557E+02 -0.70055584733E+01  0.19995715589E+02  0.51100000000E-03 0.  1.
        -12    1    3    3    0    0  0.13433362078E+02  0.13659541076E+02 -0.19122264241E+02  0.27068418292E+02  0.00000000000E+00 0.  1.
</event>
<event>
 7    1  0.9175399E-010  0.4778726E+02  0.7816164E-02  0.1312668E+00
        -11   -1    0    0    0    0  0.00000000000E+00  0.00000000000E+00  0.45593999997E+02  0.45594000000E+02  0.51100000000E-03 0. -1.
         11   -1    0    0    0    0 -0.00000000000E+00 -0.00000000000E+00 -0.45593999997E+02  0.45594000000E+02  0.51100000000E-03 0.  1.
    9900012    2    1    2    0    0 -0.11256663316E+02  0.15117008022E+02  0.39094602547E+02  0.47787258660E+02  0.19999943536E+02 0.  0.
        -12    1    1    2    0    0  0.11256663316E+02 -0.15117008022E+02 -0.39094602547E+02  0.43400741340E+02  0.00000000000E+00 0.  1.
         11    1    3    3    0    0 -0.45033124623E+01  0.24282401193E+01  0.19045670503E+02  0.19720895983E+02  0.51100000000E-03 0. -1.
        -11    1    3    3    0    0 -0.81400603561E+01  0.12014478078E+02  0.93649183028E+01  0.17271651952E+02  0.51100000000E-03 0.  1.
        -12    1    3    3    0    0  0.13867095028E+01  0.67428982486E+00  0.10684013741E+02  0.10794710725E+02  0.00000000000E+00 0.  1.
</event>
<event>
 7    1  0.9175399E-010  0.4778727E+02  0.7816164E-02  0.1312668E+00
        -11   -1    0    0    0    0  0.00000000000E+00  0.00000000000E+00  0.45593999997E+02  0.45594000000E+02  0.51100000000E-03 0.  1.
         11   -1    0    0    0    0 -0.00000000000E+00 -0.00000000000E+00 -0.45593999997E+02  0.45594000000E+02  0.51100000000E-03 0. -1.
    9900012    2    1    2    0    0 -0.30053697139E+02 -0.29328691151E+02 -0.10964791120E+02  0.47787268662E+02  0.19999989138E+02 0.  0.
         12    1    1    2    0    0  0.30053697139E+02  0.29328691151E+02  0.10964791120E+02  0.43400731338E+02  0.00000000000E+00 0. -1.
         11    1    3    3    0    0  0.11538740041E+01 -0.24152235603E+01 -0.16641004036E+01  0.31518185985E+01  0.51100000000E-03 0. -1.
        -11    1    3    3    0    0 -0.25505857187E+02 -0.14287322739E+02 -0.29121011053E+01  0.29379528162E+02  0.51100000000E-03 0.  1.
        -12    1    3    3    0    0 -0.57017139560E+01 -0.12626144852E+02 -0.63885896110E+01  0.15255921902E+02  0.00000000000E+00 0.  1.
</event>
<event>
 7    1  0.9175399E-010  0.4778727E+02  0.7816164E-02  0.1312668E+00
        -11   -1    0    0    0    0  0.00000000000E+00  0.00000000000E+00  0.45593999997E+02  0.45594000000E+02  0.51100000000E-03 0. -1.
         11   -1    0    0    0    0 -0.00000000000E+00 -0.00000000000E+00 -0.45593999997E+02  0.45594000000E+02  0.51100000000E-03 0.  1.
    9900012    2    1    2    0    0  0.31342305633E+02  0.22744331855E+02  0.19595372557E+02  0.47787269827E+02  0.19999994449E+02 0.  0.
        -12    1    1    2    0    0 -0.31342305633E+02 -0.22744331855E+02 -0.19595372557E+02  0.43400730173E+02  0.00000000000E+00 0.  1.
         11    1    3    3    0    0  0.11581813328E+02  0.14915802550E+02  0.72149078078E+01  0.20215698370E+02  0.51100000000E-03 0. -1.
        -11    1    3    3    0    0  0.54339250913E+01  0.18773019583E+01  0.10465152173E+02  0.11940318873E+02  0.51100000000E-03 0.  1.
        -12    1    3    3    0    0  0.14326567213E+02  0.59512273473E+01  0.19153125763E+01  0.15631252583E+02  0.00000000000E+00 0.  1.
</event>
<event>
 7    1  0.9175399E-010  0.4778727E+02  0.7816164E-02  0.1312668E+00
        -11   -1    0    0    0    0  0.00000000000E+00  0.00000000000E+00  0.45593999997E+02  0.45594000000E+02  0.51100000000E-03 0. -1.
         11   -1    0    0    0    0 -0.00000000000E+00 -0.00000000000E+00 -0.45593999997E+02  0.45594000000E+02  0.51100000000E-03 0.  1.
    9900012    2    1    2    0    0  0.13103211120E+01  0.77800025126E+01  0.42677606483E+02  0.47787268720E+02  0.19999989402E+02 0.  0.
        -12    1    1    2    0    0 -0.13103211120E+01 -0.77800025126E+01 -0.42677606483E+02  0.43400731280E+02  0.00000000000E+00 0.  1.
         11    1    3    3    0    0 -0.51367304017E+01 -0.30025755685E+00  0.66042602923E+01  0.83721208837E+01  0.51100000000E-03 0. -1.
        -11    1    3    3    0    0 -0.35174096981E+00 -0.26586650307E+01  0.10770838069E+02  0.11099692537E+02  0.51100000000E-03 0.  1.
        -12    1    3    3    0    0  0.67987924835E+01  0.10738925100E+02  0.25302508122E+02  0.28315455299E+02  0.00000000000E+00 0.  1.
</event>
<event>
 7    1  0.9175399E-010  0.4778727E+02  0.7816164E-02  0.1312668E+00
        -11   -1    0    0    0    0  0.00000000000E+00  0.00000000000E+00  0.45593999997E+02  0.45594000000E+02  0.51100000000E-03 0. -1.
         11   -1    0    0    0    0 -0.00000000000E+00 -0.00000000000E+00 -0.45593999997E+02  0.45594000000E+02  0.51100000000E-03 0.  1.
    9900012    2    1    2    0    0  0.21642085055E-01 -0.25521460055E+02 -0.35103815838E+02  0.47787270996E+02  0.19999999778E+02 0.  0.
         12    1    1    2    0    0 -0.21642085055E-01  0.25521460055E+02  0.35103815838E+02  0.43400729004E+02  0.00000000000E+00 0. -1.
         11    1    3    3    0    0  0.38168043266E+01 -0.32912840455E+01 -0.16130916556E+02  0.16899911690E+02  0.51100000000E-03 0.  1.
        -11    1    3    3    0    0 -0.53910076142E+01 -0.13006096590E+02 -0.71002659097E+01  0.15768173257E+02  0.51100000000E-03 0. -1.
         12    1    3    3    0    0  0.15958453727E+01 -0.92240794192E+01 -0.11872633373E+02  0.15119186049E+02  0.00000000000E+00 0. -1.
</event>
<event>
 7    1  0.9175399E-010  0.4778727E+02  0.7816164E-02  0.1312668E+00
        -11   -1    0    0    0    0  0.00000000000E+00  0.00000000000E+00  0.45593999997E+02  0.45594000000E+02  0.51100000000E-03 0. -1.
         11   -1    0    0    0    0 -0.00000000000E+00 -0.00000000000E+00 -0.45593999997E+02  0.45594000000E+02  0.51100000000E-03 0.  1.
    9900012    2    1    2    0    0  0.17850757939E+02 -0.13031304504E+02  0.37351821988E+02  0.47787273486E+02  0.20000011132E+02 0.  0.
        -12    1    1    2    0    0 -0.17850757939E+02  0.13031304504E+02 -0.37351821988E+02  0.43400726514E+02  0.00000000000E+00 0.  1.
         11    1    3    3    0    0  0.51718707040E+01 -0.58634112534E+01  0.93565855946E+01  0.12193175647E+02  0.51100000000E-03 0. -1.
        -11    1    3    3    0    0  0.11935469023E+02 -0.19326399788E+01  0.27785439227E+02  0.30302164137E+02  0.51100000000E-03 0.  1.
        -12    1    3    3    0    0  0.74341821270E+00 -0.52352532717E+01  0.20979716685E+00  0.52919337023E+01  0.00000000000E+00 0.  1.
</event>
<event>
 7    1  0.9175399E-010  0.4778727E+02  0.7816164E-02  0.1312668E+00
        -11   -1    0    0    0    0  0.00000000000E+00  0.00000000000E+00  0.45593999997E+02  0.45594000000E+02  0.51100000000E-03 0. -1.
         11   -1    0    0    0    0 -0.00000000000E+00 -0.00000000000E+00 -0.45593999997E+02  0.45594000000E+02  0.51100000000E-03 0.  1.
    9900012    2    1    2    0    0  0.33910561651E+02  0.21127736178E+02 -0.16950393337E+02  0.47787271184E+02  0.20000000637E+02 0.  0.
        -12    1    1    2    0    0 -0.33910561651E+02 -0.21127736178E+02  0.16950393337E+02  0.43400728816E+02  0.00000000000E+00 0.  1.
         11    1    3    3    0    0  0.99990419414E+01  0.22358517481E+01 -0.36983552856E+01  0.10893011744E+02  0.51100000000E-03 0. -1.
        -11    1    3    3    0    0  0.25482428551E+02  0.19945373734E+02 -0.13337512328E+02  0.35000876183E+02  0.51100000000E-03 0.  1.
        -12    1    3    3    0    0 -0.15709088421E+01 -0.10534893040E+01  0.85474275822E-01  0.18933832564E+01  0.00000000000E+00 0.  1.
</event>
<event>
 7    1  0.9175399E-010  0.4778727E+02  0.7816164E-02  0.1312668E+00
        -11   -1    0    0    0    0  0.00000000000E+00  0.00000000000E+00  0.45593999997E+02  0.45594000000E+02  0.51100000000E-03 0. -1.
         11   -1    0    0    0    0 -0.00000000000E+00 -0.00000000000E+00 -0.45593999997E+02  0.45594000000E+02  0.51100000000E-03 0.  1.
    9900012    2    1    2    0    0 -0.94979860716E+01  0.29109621883E+02 -0.30757781838E+02  0.47787274555E+02  0.20000016007E+02 0.  0.
         12    1    1    2    0    0  0.94979860716E+01 -0.29109621883E+02  0.30757781838E+02  0.43400725445E+02  0.00000000000E+00 0. -1.
         11    1    3    3    0    0 -0.16500440467E+01 -0.22377150172E+01 -0.21140689183E+01  0.34927498489E+01  0.51100000000E-03 0. -1.
        -11    1    3    3    0    0 -0.59344796407E+01  0.21684817720E+02 -0.13484157655E+02  0.26215870691E+02  0.51100000000E-03 0.  1.
         12    1    3    3    0    0 -0.19134623842E+01  0.96625191795E+01 -0.15159555264E+02  0.18078654015E+02  0.00000000000E+00 0. -1.
</event>
<event>
 7    1  0.9175399E-010  0.4778727E+02  0.7816164E-02  0.1312668E+00
        -11   -1    0    0    0    0  0.00000000000E+00  0.00000000000E+00  0.45593999997E+02  0.45594000000E+02  0.51100000000E-03 0. -1.
         11   -1    0    0    0    0 -0.00000000000E+00 -0.00000000000E+00 -0.45593999997E+02  0.45594000000E+02  0.51100000000E-03 0.  1.
    9900012    2    1    2    0    0 -0.22289661969E+02 -0.11768343746E+02 -0.35331298550E+02  0.47787267259E+02  0.19999982740E+02 0.  0.
         12    1    1    2    0    0  0.22289661969E+02  0.11768343746E+02  0.35331298550E+02  0.43400732741E+02  0.00000000000E+00 0. -1.
         11    1    3    3    0    0 -0.22490858311E+01 -0.68897078117E+01 -0.70318547189E+01  0.10098190029E+02  0.51100000000E-03 0. -1.
        -11    1    3    3    0    0 -0.94870727738E+01 -0.26049095866E+01 -0.24231281461E+02  0.26152344164E+02  0.51100000000E-03 0.  1.
        -12    1    3    3    0    0 -0.10553503364E+02 -0.22737263482E+01 -0.40681623700E+01  0.11536733066E+02  0.00000000000E+00 0.  1.
</event>
<event>
 7    1  0.9175399E-010  0.4778727E+02  0.7816164E-02  0.1312668E+00
        -11   -1    0    0    0    0  0.00000000000E+00  0.00000000000E+00  0.45593999997E+02  0.45594000000E+02  0.51100000000E-03 0. -1.
         11   -1    0    0    0    0 -0.00000000000E+00 -0.00000000000E+00 -0.45593999997E+02  0.45594000000E+02  0.51100000000E-03 0.  1.
    9900012    2    1    2    0    0  0.18597175044E+02 -0.14641122271E+02  0.36378648245E+02  0.47787269256E+02  0.19999991848E+02 0.  0.
        -12    1    1    2    0    0 -0.18597175044E+02  0.14641122271E+02 -0.36378648245E+02  0.43400730744E+02  0.00000000000E+00 0.  1.
         11    1    3    3    0    0  0.34907670794E+01 -0.73495072660E+01  0.10841974151E+02  0.13555409090E+02  0.51100000000E-03 0. -1.
        -11    1    3    3    0    0  0.69211735275E+01 -0.29875621934E+01  0.23611545595E+02  0.24785747043E+02  0.51100000000E-03 0.  1.
        -12    1    3    3    0    0  0.81852344368E+01 -0.43040528120E+01  0.19251284991E+01  0.94461131230E+01  0.00000000000E+00 0.  1.
</event>
<event>
 7    1  0.9175399E-010  0.4778727E+02  0.7816164E-02  0.1312668E+00
        -11   -1    0    0    0    0  0.00000000000E+00  0.00000000000E+00  0.45593999997E+02  0.45594000000E+02  0.51100000000E-03 0. -1.
         11   -1    0    0    0    0 -0.00000000000E+00 -0.00000000000E+00 -0.45593999997E+02  0.45594000000E+02  0.51100000000E-03 0.  1.
    9900012    2    1    2    0    0  0.17020759818E+02  0.28358525590E+02  0.28101798196E+02  0.47787270741E+02  0.19999998614E+02 0.  0.
        -12    1    1    2    0    0 -0.17020759818E+02 -0.28358525590E+02 -0.28101798196E+02  0.43400729259E+02  0.00000000000E+00 0.  1.
         11    1    3    3    0    0  0.16021011019E+02  0.19389745192E+02  0.12626717165E+02  0.28143720424E+02  0.51100000000E-03 0. -1.
        -11    1    3    3    0    0 -0.15066935155E+01  0.43555052054E+01  0.17177695025E+01  0.49184635069E+01  0.51100000000E-03 0.  1.
         12    1    3    3    0    0  0.25064423146E+01  0.46132751933E+01  0.13757311528E+02  0.14725086810E+02  0.00000000000E+00 0. -1.
</event>
<event>
 7    1  0.9175399E-010  0.4778727E+02  0.7816164E-02  0.1312668E+00
        -11   -1    0    0    0    0  0.00000000000E+00  0.00000000000E+00  0.45593999997E+02  0.45594000000E+02  0.51100000000E-03 0.  1.
         11   -1    0    0    0    0 -0.00000000000E+00 -0.00000000000E+00 -0.45593999997E+02  0.45594000000E+02  0.51100000000E-03 0. -1.
    9900012    2    1    2    0    0  0.23394610206E+02 -0.32238167130E+02 -0.17234153662E+02  0.47787271215E+02  0.20000000779E+02 0.  0.
        -12    1    1    2    0    0 -0.23394610206E+02  0.32238167130E+02  0.17234153662E+02  0.43400728785E+02  0.00000000000E+00 0.  1.
         11    1    3    3    0    0  0.94588944771E+01 -0.10289784895E+02 -0.14233613886E+02  0.19948586978E+02  0.51100000000E-03 0. -1.
        -11    1    3    3    0    0  0.79786003328E+01 -0.14699055011E+02  0.25784140277E+01  0.16922425968E+02  0.51100000000E-03 0.  1.
        -12    1    3    3    0    0  0.59571153958E+01 -0.72493272244E+01 -0.55789538038E+01  0.10916258269E+02  0.00000000000E+00 0.  1.
</event>
<event>
 7    1  0.9175399E-010  0.4778727E+02  0.7816164E-02  0.1312668E+00
        -11   -1    0    0    0    0  0.00000000000E+00  0.00000000000E+00  0.45593999997E+02  0.45594000000E+02  0.51100000000E-03 0. -1.
         11   -1    0    0    0    0 -0.00000000000E+00 -0.00000000000E+00 -0.45593999997E+02  0.45594000000E+02  0.51100000000E-03 0.  1.
    9900012    2    1    2    0    0  0.10386710600E+02 -0.36062346398E+02  0.21800157031E+02  0.47787269230E+02  0.19999991728E+02 0.  0.
        -12    1    1    2    0    0 -0.10386710600E+02  0.36062346398E+02 -0.21800157031E+02  0.43400730770E+02  0.00000000000E+00 0.  1.
         11    1    3    3    0    0  0.40279187977E+01 -0.13906402749E+02  0.11988611719E+02  0.18797313065E+02  0.51100000000E-03 0. -1.
        -11    1    3    3    0    0  0.50453832564E+00 -0.94174812539E+00 -0.32345748358E+01  0.34064531530E+01  0.51100000000E-03 0.  1.
        -12    1    3    3    0    0  0.58542534764E+01 -0.21214195523E+02  0.13046120147E+02  0.25583503012E+02  0.00000000000E+00 0.  1.
</event>
<event>
 7    1  0.9175399E-010  0.4778727E+02  0.7816164E-02  0.1312668E+00
        -11   -1    0    0    0    0  0.00000000000E+00  0.00000000000E+00  0.45593999997E+02  0.45594000000E+02  0.51100000000E-03 0. -1.
         11   -1    0    0    0    0 -0.00000000000E+00 -0.00000000000E+00 -0.45593999997E+02  0.45594000000E+02  0.51100000000E-03 0.  1.
    9900012    2    1    2    0    0  0.75854888228E+01 -0.16496377471E+02  0.39420212744E+02  0.47787270938E+02  0.19999999515E+02 0.  0.
        -12    1    1    2    0    0 -0.75854888228E+01  0.16496377471E+02 -0.39420212744E+02  0.43400729062E+02  0.00000000000E+00 0.  1.
         11    1    3    3    0    0  0.21224728465E+01 -0.41423165819E+00  0.30856493109E+01  0.37679849763E+01  0.51100000000E-03 0. -1.
        -11    1    3    3    0    0  0.73378661309E+01 -0.19244434805E+01  0.23927594372E+02  0.25101345278E+02  0.51100000000E-03 0.  1.
        -12    1    3    3    0    0 -0.18748501546E+01 -0.14157702332E+02  0.12406969060E+02  0.18917940683E+02  0.00000000000E+00 0.  1.
</event>
<event>
 7    1  0.1009327E-009  0.4778727E+02  0.7816164E-02  0.1312668E+00
        -11   -1    0    0    0    0  0.00000000000E+00  0.00000000000E+00  0.45593999997E+02  0.45594000000E+02  0.51100000000E-03 0. -1.
         11   -1    0    0    0    0 -0.00000000000E+00 -0.00000000000E+00 -0.45593999997E+02  0.45594000000E+02  0.51100000000E-03 0.  1.
    9900012    2    1    2    0    0  0.27178129757E+01  0.21903606647E+02 -0.37369355863E+02  0.47787271330E+02  0.20000001300E+02 0.  0.
         12    1    1    2    0    0 -0.27178129757E+01 -0.21903606647E+02  0.37369355863E+02  0.43400728670E+02  0.00000000000E+00 0. -1.
         11    1    3    3    0    0 -0.25468688478E+01 -0.66144768716E+00  0.63638871975E-01  0.26321292023E+01  0.51100000000E-03 0. -1.
        -11    1    3    3    0    0  0.53144669440E+01  0.63867620680E+01 -0.18307585256E+02  0.20104774726E+02  0.51100000000E-03 0.  1.
         12    1    3    3    0    0 -0.49785120591E-01  0.16178292267E+02 -0.19125409478E+02  0.25050367401E+02  0.00000000000E+00 0. -1.
</event>
<event>
 7    1  0.9175399E-010  0.4778727E+02  0.7816164E-02  0.1312668E+00
        -11   -1    0    0    0    0  0.00000000000E+00  0.00000000000E+00  0.45593999997E+02  0.45594000000E+02  0.51100000000E-03 0.  1.
         11   -1    0    0    0    0 -0.00000000000E+00 -0.00000000000E+00 -0.45593999997E+02  0.45594000000E+02  0.51100000000E-03 0. -1.
    9900012    2    1    2    0    0 -0.27469674645E+02  0.16654380314E+02  0.29183417053E+02  0.47787271439E+02  0.20000001799E+02 0.  0.
        -12    1    1    2    0    0  0.27469674645E+02 -0.16654380314E+02 -0.29183417053E+02  0.43400728561E+02  0.00000000000E+00 0.  1.
         11    1    3    3    0    0 -0.20685544977E+02  0.19864568273E+02  0.17668102874E+02  0.33684636009E+02  0.51100000000E-03 0. -1.
        -11    1    3    3    0    0 -0.38190284626E+01 -0.34592075179E+01  0.69103641908E+01  0.86199900557E+01  0.51100000000E-03 0.  1.
         12    1    3    3    0    0 -0.29651012057E+01  0.24901955860E+00  0.46049499883E+01  0.54826453738E+01  0.00000000000E+00 0. -1.
</event>
<event>
 7    1  0.9175399E-010  0.4778727E+02  0.7816164E-02  0.1312668E+00
        -11   -1    0    0    0    0  0.00000000000E+00  0.00000000000E+00  0.45593999997E+02  0.45594000000E+02  0.51100000000E-03 0. -1.
         11   -1    0    0    0    0 -0.00000000000E+00 -0.00000000000E+00 -0.45593999997E+02  0.45594000000E+02  0.51100000000E-03 0.  1.
    9900012    2    1    2    0    0 -0.12384131287E+01 -0.35174350364E+02  0.25393992964E+02  0.47787268794E+02  0.19999989737E+02 0.  0.
        -12    1    1    2    0    0  0.12384131287E+01  0.35174350364E+02 -0.25393992964E+02  0.43400731206E+02  0.00000000000E+00 0.  1.
         11    1    3    3    0    0 -0.17550726908E+01 -0.12077801186E+02  0.67374103520E+01  0.13940812750E+02  0.51100000000E-03 0. -1.
        -11    1    3    3    0    0 -0.58322732804E+00 -0.14944916881E+02  0.20539779513E+02  0.25408133292E+02  0.51100000000E-03 0.  1.
        -12    1    3    3    0    0  0.10998868902E+01 -0.81516322972E+01 -0.18831969008E+01  0.84383227508E+01  0.00000000000E+00 0.  1.
</event>
<event>
 7    1  0.9175399E-010  0.4778727E+02  0.7816164E-02  0.1312668E+00
        -11   -1    0    0    0    0  0.00000000000E+00  0.00000000000E+00  0.45593999997E+02  0.45594000000E+02  0.51100000000E-03 0. -1.
         11   -1    0    0    0    0 -0.00000000000E+00 -0.00000000000E+00 -0.45593999997E+02  0.45594000000E+02  0.51100000000E-03 0.  1.
    9900012    2    1    2    0    0  0.11472115606E+02 -0.27225191120E+02 -0.31793130473E+02  0.47787267134E+02  0.19999982173E+02 0.  0.
         12    1    1    2    0    0 -0.11472115606E+02  0.27225191120E+02  0.31793130473E+02  0.43400732866E+02  0.00000000000E+00 0. -1.
         11    1    3    3    0    0 -0.22171440969E+01 -0.33505476539E+01 -0.83730831233E+01  0.92871103568E+01  0.51100000000E-03 0. -1.
        -11    1    3    3    0    0  0.10785253758E+02 -0.11893822277E+02 -0.59590037114E+01  0.17125841073E+02  0.51100000000E-03 0.  1.
        -12    1    3    3    0    0  0.29040059454E+01 -0.11980821190E+02 -0.17461043638E+02  0.21374315704E+02  0.00000000000E+00 0.  1.
</event>
<event>
 7    1  0.9175399E-010  0.4778727E+02  0.7816164E-02  0.1312668E+00
        -11   -1    0    0    0    0  0.00000000000E+00  0.00000000000E+00  0.45593999997E+02  0.45594000000E+02  0.51100000000E-03 0.  1.
         11   -1    0    0    0    0 -0.00000000000E+00 -0.00000000000E+00 -0.45593999997E+02  0.45594000000E+02  0.51100000000E-03 0. -1.
    9900012    2    1    2    0    0  0.14205430099E+02 -0.39501440430E+02 -0.11021144826E+02  0.47787266439E+02  0.19999979003E+02 0.  0.
         12    1    1    2    0    0 -0.14205430099E+02  0.39501440430E+02  0.11021144826E+02  0.43400733561E+02  0.00000000000E+00 0. -1.
         11    1    3    3    0    0 -0.23328394423E+01 -0.16981862067E+02 -0.33659846338E+01  0.17468704358E+02  0.51100000000E-03 0. -1.
        -11    1    3    3    0    0  0.46491172897E+01 -0.10139504678E+01 -0.14402105139E+01  0.49715785934E+01  0.51100000000E-03 0.  1.
         12    1    3    3    0    0  0.11889152252E+02 -0.21505627895E+02 -0.62149496785E+01  0.25346983488E+02  0.00000000000E+00 0. -1.
</event>
<event>
 7    1  0.9175399E-010  0.4778727E+02  0.7816164E-02  0.1312668E+00
        -11   -1    0    0    0    0  0.00000000000E+00  0.00000000000E+00  0.45593999997E+02  0.45594000000E+02  0.51100000000E-03 0. -1.
         11   -1    0    0    0    0 -0.00000000000E+00 -0.00000000000E+00 -0.45593999997E+02  0.45594000000E+02  0.51100000000E-03 0.  1.
    9900012    2    1    2    0    0 -0.72116118327E+01 -0.16401000045E+02  0.39530024976E+02  0.47787273943E+02  0.20000013214E+02 0.  0.
        -12    1    1    2    0    0  0.72116118327E+01  0.16401000045E+02 -0.39530024976E+02  0.43400726057E+02  0.00000000000E+00 0.  1.
         11    1    3    3    0    0 -0.81339751224E+00  0.14078356800E+01  0.10087002135E+02  0.10217202608E+02  0.51100000000E-03 0. -1.
        -11    1    3    3    0    0 -0.76016585289E+01 -0.28766112208E+01  0.12948631975E+02  0.15288138369E+02  0.51100000000E-03 0.  1.
        -12    1    3    3    0    0  0.12034442085E+01 -0.14932224505E+02  0.16494390866E+02  0.22281932965E+02  0.00000000000E+00 0.  1.
</event>
<event>
 7    1  0.9175399E-010  0.4778728E+02  0.7816164E-02  0.1312668E+00
        -11   -1    0    0    0    0  0.00000000000E+00  0.00000000000E+00  0.45593999997E+02  0.45594000000E+02  0.51100000000E-03 0. -1.
         11   -1    0    0    0    0 -0.00000000000E+00 -0.00000000000E+00 -0.45593999997E+02  0.45594000000E+02  0.51100000000E-03 0.  1.
    9900012    2    1    2    0    0 -0.13733417748E+02  0.58939316985E+00 -0.41166352961E+02  0.47787276924E+02  0.20000026809E+02 0.  0.
         12    1    1    2    0    0  0.13733417748E+02 -0.58939316985E+00  0.41166352961E+02  0.43400723076E+02  0.00000000000E+00 0. -1.
         11    1    3    3    0    0 -0.22030027700E+01 -0.45326403960E+01 -0.14746064165E+01  0.52509536762E+01  0.51100000000E-03 0. -1.
        -11    1    3    3    0    0 -0.72405762531E+01  0.71465588795E+01 -0.31105037065E+02  0.32726481317E+02  0.51100000000E-03 0.  1.
        -12    1    3    3    0    0 -0.42898387251E+01 -0.20245253136E+01 -0.85867094795E+01  0.98098419314E+01  0.00000000000E+00 0.  1.
</event>
<event>
 7    1  0.9175399E-010  0.4778727E+02  0.7816164E-02  0.1312668E+00
        -11   -1    0    0    0    0  0.00000000000E+00  0.00000000000E+00  0.45593999997E+02  0.45594000000E+02  0.51100000000E-03 0. -1.
         11   -1    0    0    0    0 -0.00000000000E+00 -0.00000000000E+00 -0.45593999997E+02  0.45594000000E+02  0.51100000000E-03 0.  1.
    9900012    2    1    2    0    0  0.20378863030E+02  0.41317214938E+01 -0.38095329798E+02  0.47787270359E+02  0.19999996876E+02 0.  0.
         12    1    1    2    0    0 -0.20378863030E+02 -0.41317214938E+01  0.38095329798E+02  0.43400729641E+02  0.00000000000E+00 0. -1.
         11    1    3    3    0    0  0.53416651673E+01  0.19936574357E+01 -0.23421205188E+02  0.24105205028E+02  0.51100000000E-03 0. -1.
        -11    1    3    3    0    0  0.11861088028E+02  0.15828619826E+01 -0.41346316530E+01  0.12660412332E+02  0.51100000000E-03 0.  1.
        -12    1    3    3    0    0  0.31761098354E+01  0.55520207556E+00 -0.10539492957E+02  0.11021652999E+02  0.00000000000E+00 0.  1.
</event>
<event>
 7    1  0.9175399E-010  0.4778727E+02  0.7816164E-02  0.1312668E+00
        -11   -1    0    0    0    0  0.00000000000E+00  0.00000000000E+00  0.45593999997E+02  0.45594000000E+02  0.51100000000E-03 0. -1.
         11   -1    0    0    0    0 -0.00000000000E+00 -0.00000000000E+00 -0.45593999997E+02  0.45594000000E+02  0.51100000000E-03 0.  1.
    9900012    2    1    2    0    0  0.21333842486E+02  0.39509950455E+01 -0.37588300046E+02  0.47787268469E+02  0.19999988260E+02 0.  0.
         12    1    1    2    0    0 -0.21333842486E+02 -0.39509950455E+01  0.37588300046E+02  0.43400731531E+02  0.00000000000E+00 0. -1.
         11    1    3    3    0    0  0.12824843148E+01  0.28039922805E+01 -0.98020666176E+01  0.10275585091E+02  0.51100000000E-03 0. -1.
        -11    1    3    3    0    0  0.98955453766E+01 -0.10537879092E+01 -0.24765320723E+02  0.26689949382E+02  0.51100000000E-03 0.  1.
        -12    1    3    3    0    0  0.10155812795E+02  0.22007906742E+01 -0.30209127049E+01  0.10821733996E+02  0.00000000000E+00 0.  1.
</event>
<event>
 7    1  0.9175399E-010  0.4778727E+02  0.7816164E-02  0.1312668E+00
        -11   -1    0    0    0    0  0.00000000000E+00  0.00000000000E+00  0.45593999997E+02  0.45594000000E+02  0.51100000000E-03 0. -1.
         11   -1    0    0    0    0 -0.00000000000E+00 -0.00000000000E+00 -0.45593999997E+02  0.45594000000E+02  0.51100000000E-03 0.  1.
    9900012    2    1    2    0    0 -0.39442730079E+02  0.43937480726E+01 -0.17566708707E+02  0.47787271515E+02  0.20000002146E+02 0.  0.
         12    1    1    2    0    0  0.39442730079E+02 -0.43937480726E+01  0.17566708707E+02  0.43400728485E+02  0.00000000000E+00 0. -1.
         11    1    3    3    0    0 -0.51165405992E+01  0.41762049534E+01  0.50236437180E+00  0.66235976432E+01  0.51100000000E-03 0. -1.
        -11    1    3    3    0    0 -0.34936412888E+02 -0.14417592345E+01 -0.16031740488E+02  0.38466197089E+02  0.51100000000E-03 0.  1.
        -12    1    3    3    0    0  0.61022340808E+00  0.16593023537E+01 -0.20373325904E+01  0.26974767826E+01  0.00000000000E+00 0.  1.
</event>
<event>
 7    1  0.9175399E-010  0.4778727E+02  0.7816164E-02  0.1312668E+00
        -11   -1    0    0    0    0  0.00000000000E+00  0.00000000000E+00  0.45593999997E+02  0.45594000000E+02  0.51100000000E-03 0. -1.
         11   -1    0    0    0    0 -0.00000000000E+00 -0.00000000000E+00 -0.45593999997E+02  0.45594000000E+02  0.51100000000E-03 0.  1.
    9900012    2    1    2    0    0  0.53413738118E+01 -0.17785159983E+02 -0.39227303747E+02  0.47787267874E+02  0.19999985544E+02 0.  0.
         12    1    1    2    0    0 -0.53413738118E+01  0.17785159983E+02  0.39227303747E+02  0.43400732126E+02  0.00000000000E+00 0. -1.
         11    1    3    3    0    0 -0.14714952555E+01 -0.58165325326E+01 -0.27975573264E+01  0.66199453355E+01  0.51100000000E-03 0. -1.
        -11    1    3    3    0    0  0.98984233040E+01 -0.11232809044E+02 -0.23577685316E+02  0.27929590545E+02  0.51100000000E-03 0.  1.
        -12    1    3    3    0    0 -0.30855542367E+01 -0.73581840680E+00 -0.12852061105E+02  0.13237731993E+02  0.00000000000E+00 0.  1.
</event>
<event>
 7    1  0.9175399E-010  0.4778728E+02  0.7816164E-02  0.1312668E+00
        -11   -1    0    0    0    0  0.00000000000E+00  0.00000000000E+00  0.45593999997E+02  0.45594000000E+02  0.51100000000E-03 0. -1.
         11   -1    0    0    0    0 -0.00000000000E+00 -0.00000000000E+00 -0.45593999997E+02  0.45594000000E+02  0.51100000000E-03 0.  1.
    9900012    2    1    2    0    0 -0.15627421417E+02  0.18221056126E+02 -0.36157979628E+02  0.47787277918E+02  0.20000031338E+02 0.  0.
         12    1    1    2    0    0  0.15627421417E+02 -0.18221056126E+02  0.36157979628E+02  0.43400722082E+02  0.00000000000E+00 0. -1.
         11    1    3    3    0    0 -0.22831299260E+01  0.16161540191E+02 -0.17355756659E+02  0.23824994293E+02  0.51100000000E-03 0. -1.
        -11    1    3    3    0    0 -0.10753024760E+02  0.11873003943E+01 -0.99530418616E+01  0.14700349189E+02  0.51100000000E-03 0.  1.
         12    1    3    3    0    0 -0.25912667308E+01  0.87221554132E+00 -0.88491811076E+01  0.92619344359E+01  0.00000000000E+00 0. -1.
</event>
<event>
 7    1  0.9175399E-010  0.4778727E+02  0.7816164E-02  0.1312668E+00
        -11   -1    0    0    0    0  0.00000000000E+00  0.00000000000E+00  0.45593999997E+02  0.45594000000E+02  0.51100000000E-03 0. -1.
         11   -1    0    0    0    0 -0.00000000000E+00 -0.00000000000E+00 -0.45593999997E+02  0.45594000000E+02  0.51100000000E-03 0.  1.
    9900012    2    1    2    0    0 -0.18089877167E+02  0.43129963994E+01 -0.39214506392E+02  0.47787272985E+02  0.20000008849E+02 0.  0.
         12    1    1    2    0    0  0.18089877167E+02 -0.43129963994E+01  0.39214506392E+02  0.43400727015E+02  0.00000000000E+00 0. -1.
         11    1    3    3    0    0 -0.16848535007E+01  0.24231662711E+00 -0.20467805131E+02  0.20538463814E+02  0.51100000000E-03 0. -1.
        -11    1    3    3    0    0 -0.12313012870E+02  0.75080651510E+01 -0.13299230831E+02  0.19617616298E+02  0.51100000000E-03 0.  1.
        -12    1    3    3    0    0 -0.40920107962E+01 -0.34373853788E+01 -0.54474704289E+01  0.76311928735E+01  0.00000000000E+00 0.  1.
</event>
<event>
 7    1  0.9175399E-010  0.4778727E+02  0.7816164E-02  0.1312668E+00
        -11   -1    0    0    0    0  0.00000000000E+00  0.00000000000E+00  0.45593999997E+02  0.45594000000E+02  0.51100000000E-03 0. -1.
         11   -1    0    0    0    0 -0.00000000000E+00 -0.00000000000E+00 -0.45593999997E+02  0.45594000000E+02  0.51100000000E-03 0.  1.
    9900012    2    1    2    0    0  0.45546408087E+01 -0.24148142809E+02 -0.35773534174E+02  0.47787270728E+02  0.19999998558E+02 0.  0.
         12    1    1    2    0    0 -0.45546408087E+01  0.24148142809E+02  0.35773534174E+02  0.43400729272E+02  0.00000000000E+00 0. -1.
         11    1    3    3    0    0  0.85948486524E+01 -0.13683551791E+02 -0.12866951054E+02  0.20655978376E+02  0.51100000000E-03 0. -1.
        -11    1    3    3    0    0 -0.12432935441E+01  0.56320083088E+00 -0.92794176859E+01  0.93792625969E+01  0.51100000000E-03 0.  1.
         12    1    3    3    0    0 -0.27969142996E+01 -0.11027791849E+02 -0.13627165435E+02  0.17752029756E+02  0.00000000000E+00 0. -1.
</event>
<event>
 7    1  0.9175399E-010  0.4778727E+02  0.7816164E-02  0.1312668E+00
        -11   -1    0    0    0    0  0.00000000000E+00  0.00000000000E+00  0.45593999997E+02  0.45594000000E+02  0.51100000000E-03 0. -1.
         11   -1    0    0    0    0 -0.00000000000E+00 -0.00000000000E+00 -0.45593999997E+02  0.45594000000E+02  0.51100000000E-03 0.  1.
    9900012    2    1    2    0    0 -0.42747573860E+02 -0.50612286828E+00 -0.74840968787E+01  0.47787274922E+02  0.20000017678E+02 0.  0.
         12    1    1    2    0    0  0.42747573860E+02  0.50612286828E+00  0.74840968787E+01  0.43400725078E+02  0.00000000000E+00 0. -1.
         11    1    3    3    0    0 -0.13363782885E+02 -0.32779782687E+01 -0.37694384957E+01  0.14266902304E+02  0.51100000000E-03 0. -1.
        -11    1    3    3    0    0  0.16616673466E+01 -0.94337582077E+00  0.48828089091E+00  0.19721852853E+01  0.51100000000E-03 0.  1.
        -12    1    3    3    0    0 -0.31045458322E+02  0.37152312212E+01 -0.42029392739E+01  0.31548187332E+02  0.00000000000E+00 0.  1.
</event>
<event>
 7    1  0.9175399E-010  0.4778727E+02  0.7816164E-02  0.1312668E+00
        -11   -1    0    0    0    0  0.00000000000E+00  0.00000000000E+00  0.45593999997E+02  0.45594000000E+02  0.51100000000E-03 0. -1.
         11   -1    0    0    0    0 -0.00000000000E+00 -0.00000000000E+00 -0.45593999997E+02  0.45594000000E+02  0.51100000000E-03 0.  1.
    9900012    2    1    2    0    0 -0.12266585124E+02 -0.31545240036E+02 -0.27167115654E+02  0.47787268987E+02  0.19999990618E+02 0.  0.
         12    1    1    2    0    0  0.12266585124E+02  0.31545240036E+02  0.27167115654E+02  0.43400731013E+02  0.00000000000E+00 0. -1.
         11    1    3    3    0    0 -0.31202629746E+01 -0.86096010997E+01 -0.18166117603E+02  0.20343773032E+02  0.51100000000E-03 0. -1.
        -11    1    3    3    0    0 -0.32661606298E+01 -0.12219613592E+02 -0.69993862057E+00  0.12667938898E+02  0.51100000000E-03 0.  1.
        -12    1    3    3    0    0 -0.58801615198E+01 -0.10716025344E+02 -0.83010594299E+01  0.14775557057E+02  0.00000000000E+00 0.  1.
</event>
<event>
 7    1  0.9175399E-010  0.4778727E+02  0.7816164E-02  0.1312668E+00
        -11   -1    0    0    0    0  0.00000000000E+00  0.00000000000E+00  0.45593999997E+02  0.45594000000E+02  0.51100000000E-03 0.  1.
         11   -1    0    0    0    0 -0.00000000000E+00 -0.00000000000E+00 -0.45593999997E+02  0.45594000000E+02  0.51100000000E-03 0. -1.
    9900012    2    1    2    0    0 -0.39733653744E+02 -0.61631071789E+01  0.16336344242E+02  0.47787271053E+02  0.20000000038E+02 0.  0.
        -12    1    1    2    0    0  0.39733653744E+02  0.61631071789E+01 -0.16336344242E+02  0.43400728947E+02  0.00000000000E+00 0.  1.
         11    1    3    3    0    0 -0.36135960733E+02 -0.94672100014E+01  0.13810276557E+02  0.39826617508E+02  0.51100000000E-03 0. -1.
        -11    1    3    3    0    0 -0.33378775998E+01  0.45858728856E+01  0.31755299863E+01  0.65004344431E+01  0.51100000000E-03 0.  1.
         12    1    3    3    0    0 -0.25981541133E+00 -0.12817700631E+01 -0.64946230163E+00  0.14602191013E+01  0.00000000000E+00 0. -1.
</event>
<event>
 7    1  0.9175399E-010  0.4778727E+02  0.7816164E-02  0.1312668E+00
        -11   -1    0    0    0    0  0.00000000000E+00  0.00000000000E+00  0.45593999997E+02  0.45594000000E+02  0.51100000000E-03 0. -1.
         11   -1    0    0    0    0 -0.00000000000E+00 -0.00000000000E+00 -0.45593999997E+02  0.45594000000E+02  0.51100000000E-03 0.  1.
    9900012    2    1    2    0    0 -0.30504701020E+01  0.23385820438E+02 -0.36433789002E+02  0.47787274817E+02  0.20000017199E+02 0.  0.
         12    1    1    2    0    0  0.30504701020E+01 -0.23385820438E+02  0.36433789002E+02  0.43400725183E+02  0.00000000000E+00 0. -1.
         11    1    3    3    0    0 -0.46249234469E-01  0.64815821778E+01 -0.49001178160E+01  0.81255277608E+01  0.51100000000E-03 0. -1.
        -11    1    3    3    0    0  0.61914515602E+01  0.24474314475E+01 -0.63356807184E+01  0.91904756971E+01  0.51100000000E-03 0.  1.
        -12    1    3    3    0    0 -0.91956724278E+01  0.14456806813E+02 -0.25197990467E+02  0.30471271359E+02  0.00000000000E+00 0.  1.
</event>
<event>
 7    1  0.9175399E-010  0.4778729E+02  0.7816164E-02  0.1312668E+00
        -11   -1    0    0    0    0  0.00000000000E+00  0.00000000000E+00  0.45593999997E+02  0.45594000000E+02  0.51100000000E-03 0. -1.
         11   -1    0    0    0    0 -0.00000000000E+00 -0.00000000000E+00 -0.45593999997E+02  0.45594000000E+02  0.51100000000E-03 0.  1.
    9900012    2    1    2    0    0  0.17666545394E+02  0.22389460316E+02  0.32714328542E+02  0.47787285129E+02  0.20000064215E+02 0.  0.
        -12    1    1    2    0    0 -0.17666545394E+02 -0.22389460316E+02 -0.32714328542E+02  0.43400714871E+02  0.00000000000E+00 0.  1.
         11    1    3    3    0    0  0.16722012208E+01 -0.28334627048E+01  0.72927904800E+00  0.33699578652E+01  0.51100000000E-03 0. -1.
        -11    1    3    3    0    0 -0.60378100373E-02  0.28941256585E+01  0.57251839862E+01  0.64151174361E+01  0.51100000000E-03 0.  1.
         12    1    3    3    0    0  0.16000381984E+02  0.22328797363E+02  0.26259865507E+02  0.38002209827E+02  0.00000000000E+00 0. -1.
</event>
<event>
 7    1  0.9175399E-010  0.4778727E+02  0.7816164E-02  0.1312668E+00
        -11   -1    0    0    0    0  0.00000000000E+00  0.00000000000E+00  0.45593999997E+02  0.45594000000E+02  0.51100000000E-03 0. -1.
         11   -1    0    0    0    0 -0.00000000000E+00 -0.00000000000E+00 -0.45593999997E+02  0.45594000000E+02  0.51100000000E-03 0.  1.
    9900012    2    1    2    0    0  0.33440334706E+01  0.87057292732E+01  0.42386923252E+02  0.47787267923E+02  0.19999985768E+02 0.  0.
        -12    1    1    2    0    0 -0.33440334706E+01 -0.87057292732E+01 -0.42386923252E+02  0.43400732077E+02  0.00000000000E+00 0.  1.
         11    1    3    3    0    0  0.25907522988E+01  0.60517897514E+01  0.24994066985E+02  0.25846460906E+02  0.51100000000E-03 0. -1.
        -11    1    3    3    0    0 -0.46346792604E+01 -0.27251402369E+01  0.47075784721E+01  0.71461833512E+01  0.51100000000E-03 0.  1.
        -12    1    3    3    0    0  0.53879604321E+01  0.53790797587E+01  0.12685277795E+02  0.14794623666E+02  0.00000000000E+00 0.  1.
</event>
<event>
 7    1  0.9175399E-010  0.4778727E+02  0.7816164E-02  0.1312668E+00
        -11   -1    0    0    0    0  0.00000000000E+00  0.00000000000E+00  0.45593999997E+02  0.45594000000E+02  0.51100000000E-03 0. -1.
         11   -1    0    0    0    0 -0.00000000000E+00 -0.00000000000E+00 -0.45593999997E+02  0.45594000000E+02  0.51100000000E-03 0.  1.
    9900012    2    1    2    0    0  0.19861280884E+02  0.27139990685E+02  0.27433075916E+02  0.47787271585E+02  0.20000002465E+02 0.  0.
        -12    1    1    2    0    0 -0.19861280884E+02 -0.27139990685E+02 -0.27433075916E+02  0.43400728415E+02  0.00000000000E+00 0.  1.
         11    1    3    3    0    0  0.38282585166E+01  0.13677890359E+02  0.14373358700E+02  0.20207268211E+02  0.51100000000E-03 0. -1.
        -11    1    3    3    0    0  0.76277062322E+01  0.35020220663E+01 -0.94859214571E+00  0.84466495273E+01  0.51100000000E-03 0.  1.
        -12    1    3    3    0    0  0.84053161350E+01  0.99600782589E+01  0.14008309362E+02  0.19133353847E+02  0.00000000000E+00 0.  1.
</event>
<event>
 7    1  0.9175399E-010  0.4778727E+02  0.7816164E-02  0.1312668E+00
        -11   -1    0    0    0    0  0.00000000000E+00  0.00000000000E+00  0.45593999997E+02  0.45594000000E+02  0.51100000000E-03 0.  1.
         11   -1    0    0    0    0 -0.00000000000E+00 -0.00000000000E+00 -0.45593999997E+02  0.45594000000E+02  0.51100000000E-03 0. -1.
    9900012    2    1    2    0    0 -0.38604402711E+02  0.16709900687E+02 -0.10681880285E+02  0.47787271250E+02  0.20000000935E+02 0.  0.
         12    1    1    2    0    0  0.38604402711E+02 -0.16709900687E+02  0.10681880285E+02  0.43400728750E+02  0.00000000000E+00 0. -1.
         11    1    3    3    0    0 -0.31950078721E+00  0.34046492813E+01  0.16897052276E+01  0.38142917428E+01  0.51100000000E-03 0. -1.
        -11    1    3    3    0    0 -0.35906455002E+02  0.13620483665E+02 -0.83658257040E+01  0.39303665555E+02  0.51100000000E-03 0.  1.
        -12    1    3    3    0    0 -0.23784469217E+01 -0.31523225937E+00 -0.40057598083E+01  0.46693139516E+01  0.00000000000E+00 0.  1.
</event>
<event>
 7    1  0.9175399E-010  0.4778726E+02  0.7816164E-02  0.1312668E+00
        -11   -1    0    0    0    0  0.00000000000E+00  0.00000000000E+00  0.45593999997E+02  0.45594000000E+02  0.51100000000E-03 0. -1.
         11   -1    0    0    0    0 -0.00000000000E+00 -0.00000000000E+00 -0.45593999997E+02  0.45594000000E+02  0.51100000000E-03 0.  1.
    9900012    2    1    2    0    0  0.23626951862E+02 -0.33975488217E+02 -0.13078912974E+02  0.47787255555E+02  0.19999929376E+02 0.  0.
         12    1    1    2    0    0 -0.23626951862E+02  0.33975488217E+02  0.13078912974E+02  0.43400744445E+02  0.00000000000E+00 0. -1.
         11    1    3    3    0    0  0.30446262427E+01 -0.93924307100E+00 -0.24039426346E+01  0.39913490145E+01  0.51100000000E-03 0. -1.
        -11    1    3    3    0    0 -0.28150411301E+01 -0.18887859348E+01  0.49252034546E-01  0.33903384633E+01  0.51100000000E-03 0.  1.
        -12    1    3    3    0    0  0.23397366749E+02 -0.31147459211E+02 -0.10724222374E+02  0.40405568077E+02  0.00000000000E+00 0.  1.
</event>
<event>
 7    1  0.9175399E-010  0.4778727E+02  0.7816164E-02  0.1312668E+00
        -11   -1    0    0    0    0  0.00000000000E+00  0.00000000000E+00  0.45593999997E+02  0.45594000000E+02  0.51100000000E-03 0. -1.
         11   -1    0    0    0    0 -0.00000000000E+00 -0.00000000000E+00 -0.45593999997E+02  0.45594000000E+02  0.51100000000E-03 0.  1.
    9900012    2    1    2    0    0  0.26800799470E+02 -0.31372311436E+02  0.13458027332E+02  0.47787271012E+02  0.19999999851E+02 0.  0.
        -12    1    1    2    0    0 -0.26800799470E+02  0.31372311436E+02 -0.13458027332E+02  0.43400728988E+02  0.00000000000E+00 0.  1.
         11    1    3    3    0    0  0.20854875573E+02 -0.18983531856E+02  0.33674954585E+01  0.28401414451E+02  0.51100000000E-03 0. -1.
        -11    1    3    3    0    0 -0.69144111169E+00 -0.85731767498E+01  0.71493516720E+01  0.11184394485E+02  0.51100000000E-03 0.  1.
        -12    1    3    3    0    0  0.66373650087E+01 -0.38156028296E+01  0.29411802010E+01  0.82014620762E+01  0.00000000000E+00 0.  1.
</event>
<event>
 7    1  0.1053646E-009  0.4778727E+02  0.7816164E-02  0.1312668E+00
        -11   -1    0    0    0    0  0.00000000000E+00  0.00000000000E+00  0.45593999997E+02  0.45594000000E+02  0.51100000000E-03 0. -1.
         11   -1    0    0    0    0 -0.00000000000E+00 -0.00000000000E+00 -0.45593999997E+02  0.45594000000E+02  0.51100000000E-03 0.  1.
    9900012    2    1    2    0    0  0.51386011414E+01  0.36634131345E+02 -0.22697100149E+02  0.47787272399E+02  0.20000006177E+02 0.  0.
         12    1    1    2    0    0 -0.51386011414E+01 -0.36634131345E+02  0.22697100149E+02  0.43400727601E+02  0.00000000000E+00 0. -1.
         11    1    3    3    0    0 -0.21915240117E+01  0.59452276037E+01  0.16446262913E+01  0.65462435529E+01  0.51100000000E-03 0. -1.
        -11    1    3    3    0    0  0.23485671771E+01  0.11402434852E+02 -0.15656586714E+02  0.19510509889E+02  0.51100000000E-03 0.  1.
         12    1    3    3    0    0  0.49815579761E+01  0.19286468889E+02 -0.86851397262E+01  0.21730518957E+02  0.00000000000E+00 0. -1.
</event>
<event>
 7    1  0.9175399E-010  0.4778727E+02  0.7816164E-02  0.1312668E+00
        -11   -1    0    0    0    0  0.00000000000E+00  0.00000000000E+00  0.45593999997E+02  0.45594000000E+02  0.51100000000E-03 0. -1.
         11   -1    0    0    0    0 -0.00000000000E+00 -0.00000000000E+00 -0.45593999997E+02  0.45594000000E+02  0.51100000000E-03 0.  1.
    9900012    2    1    2    0    0  0.19018999484E+02  0.34797748811E+02 -0.17635700800E+02  0.47787267213E+02  0.19999982532E+02 0.  0.
         12    1    1    2    0    0 -0.19018999484E+02 -0.34797748811E+02  0.17635700800E+02  0.43400732787E+02  0.00000000000E+00 0. -1.
         11    1    3    3    0    0  0.12811074067E+02  0.23007742042E+02 -0.17832553429E+02  0.31803769819E+02  0.51100000000E-03 0. -1.
        -11    1    3    3    0    0  0.53184834200E+01  0.11193971397E+02 -0.28819201682E+01  0.12723864415E+02  0.51100000000E-03 0.  1.
         12    1    3    3    0    0  0.88944199751E+00  0.59603537231E+00  0.30787727966E+01  0.32596329801E+01  0.00000000000E+00 0. -1.
</event>
<event>
 7    1  0.9175399E-010  0.4778727E+02  0.7816164E-02  0.1312668E+00
        -11   -1    0    0    0    0  0.00000000000E+00  0.00000000000E+00  0.45593999997E+02  0.45594000000E+02  0.51100000000E-03 0. -1.
         11   -1    0    0    0    0 -0.00000000000E+00 -0.00000000000E+00 -0.45593999997E+02  0.45594000000E+02  0.51100000000E-03 0.  1.
    9900012    2    1    2    0    0 -0.96816620701E+00 -0.36927144182E+01  0.43232507333E+02  0.47787272173E+02  0.20000005146E+02 0.  0.
        -12    1    1    2    0    0  0.96816620701E+00  0.36927144182E+01 -0.43232507333E+02  0.43400727827E+02  0.00000000000E+00 0.  1.
         11    1    3    3    0    0  0.11810913714E+01 -0.12132152619E+01  0.14452992785E+02  0.14551833864E+02  0.51100000000E-03 0. -1.
        -11    1    3    3    0    0 -0.64361960224E+01 -0.72318601216E+01  0.21263041399E+02  0.23363247845E+02  0.51100000000E-03 0.  1.
        -12    1    3    3    0    0  0.42869384439E+01  0.47523609652E+01  0.75164731494E+01  0.98721904647E+01  0.00000000000E+00 0.  1.
</event>
<event>
 7    1  0.9175399E-010  0.4778727E+02  0.7816164E-02  0.1312668E+00
        -11   -1    0    0    0    0  0.00000000000E+00  0.00000000000E+00  0.45593999997E+02  0.45594000000E+02  0.51100000000E-03 0. -1.
         11   -1    0    0    0    0 -0.00000000000E+00 -0.00000000000E+00 -0.45593999997E+02  0.45594000000E+02  0.51100000000E-03 0.  1.
    9900012    2    1    2    0    0  0.29115819587E+02 -0.17582409751E+01 -0.32137220206E+02  0.47787270927E+02  0.19999999464E+02 0.  0.
         12    1    1    2    0    0 -0.29115819587E+02  0.17582409751E+01  0.32137220206E+02  0.43400729073E+02  0.00000000000E+00 0. -1.
         11    1    3    3    0    0  0.39643955895E+01  0.39374733989E+01 -0.42074260486E+00  0.56033163179E+01  0.51100000000E-03 0. -1.
        -11    1    3    3    0    0  0.99173566155E+01 -0.48279935383E+01 -0.20385066581E+02  0.23177886522E+02  0.51100000000E-03 0.  1.
        -12    1    3    3    0    0  0.15234067382E+02 -0.86772083564E+00 -0.11331411020E+02  0.19006068087E+02  0.00000000000E+00 0.  1.
</event>
<event>
 7    1  0.9175399E-010  0.4778727E+02  0.7816164E-02  0.1312668E+00
        -11   -1    0    0    0    0  0.00000000000E+00  0.00000000000E+00  0.45593999997E+02  0.45594000000E+02  0.51100000000E-03 0. -1.
         11   -1    0    0    0    0 -0.00000000000E+00 -0.00000000000E+00 -0.45593999997E+02  0.45594000000E+02  0.51100000000E-03 0.  1.
    9900012    2    1    2    0    0  0.16658071750E+02  0.17222338140E+02 -0.36187332253E+02  0.47787270731E+02  0.19999998572E+02 0.  0.
         12    1    1    2    0    0 -0.16658071750E+02 -0.17222338140E+02  0.36187332253E+02  0.43400729269E+02  0.00000000000E+00 0. -1.
         11    1    3    3    0    0  0.61249781179E+01  0.15411362753E+02 -0.11980860173E+02  0.20458897077E+02  0.51100000000E-03 0. -1.
        -11    1    3    3    0    0  0.11483137168E+02  0.15268067757E+01 -0.21144343327E+02  0.24109683390E+02  0.51100000000E-03 0.  1.
         12    1    3    3    0    0 -0.95004353618E+00  0.28416861148E+00 -0.30621287532E+01  0.32186902649E+01  0.00000000000E+00 0. -1.
</event>
<event>
 7    1  0.9175399E-010  0.4778727E+02  0.7816164E-02  0.1312668E+00
        -11   -1    0    0    0    0  0.00000000000E+00  0.00000000000E+00  0.45593999997E+02  0.45594000000E+02  0.51100000000E-03 0. -1.
         11   -1    0    0    0    0 -0.00000000000E+00 -0.00000000000E+00 -0.45593999997E+02  0.45594000000E+02  0.51100000000E-03 0.  1.
    9900012    2    1    2    0    0  0.47096170439E+01 -0.23517310045E+02  0.36171523513E+02  0.47787268696E+02  0.19999989293E+02 0.  0.
        -12    1    1    2    0    0 -0.47096170439E+01  0.23517310045E+02 -0.36171523513E+02  0.43400731304E+02  0.00000000000E+00 0.  1.
         11    1    3    3    0    0  0.70650525361E+01 -0.10384208476E+02  0.23156671368E+02  0.26343465643E+02  0.51100000000E-03 0. -1.
        -11    1    3    3    0    0 -0.60971069465E+01 -0.46231576699E+01  0.70065761463E+01  0.10374989615E+02  0.51100000000E-03 0.  1.
         12    1    3    3    0    0  0.37416714543E+01 -0.85099438990E+01  0.60082759995E+01  0.11068813438E+02  0.00000000000E+00 0. -1.
</event>
<event>
 7    1  0.9175399E-010  0.4778727E+02  0.7816164E-02  0.1312668E+00
        -11   -1    0    0    0    0  0.00000000000E+00  0.00000000000E+00  0.45593999997E+02  0.45594000000E+02  0.51100000000E-03 0.  1.
         11   -1    0    0    0    0 -0.00000000000E+00 -0.00000000000E+00 -0.45593999997E+02  0.45594000000E+02  0.51100000000E-03 0. -1.
    9900012    2    1    2    0    0 -0.37915865375E+02 -0.14725862899E+02 -0.15138014930E+02  0.47787269808E+02  0.19999994361E+02 0.  0.
         12    1    1    2    0    0  0.37915865375E+02  0.14725862899E+02  0.15138014930E+02  0.43400730192E+02  0.00000000000E+00 0. -1.
         11    1    3    3    0    0 -0.35132856644E+01 -0.86511462762E+01 -0.12934907985E+01  0.94264853874E+01  0.51100000000E-03 0. -1.
        -11    1    3    3    0    0 -0.31348829240E+02 -0.30973705911E+01 -0.12469173170E+02  0.33879537764E+02  0.51100000000E-03 0.  1.
        -12    1    3    3    0    0 -0.30537504699E+01 -0.29773460317E+01 -0.13753509617E+01  0.44812466561E+01  0.00000000000E+00 0.  1.
</event>
<event>
 7    1  0.9175399E-010  0.4778728E+02  0.7816164E-02  0.1312668E+00
        -11   -1    0    0    0    0  0.00000000000E+00  0.00000000000E+00  0.45593999997E+02  0.45594000000E+02  0.51100000000E-03 0. -1.
         11   -1    0    0    0    0 -0.00000000000E+00 -0.00000000000E+00 -0.45593999997E+02  0.45594000000E+02  0.51100000000E-03 0.  1.
    9900012    2    1    2    0    0 -0.35822006959E+02  0.66564980983E+01 -0.23581713698E+02  0.47787281452E+02  0.20000047452E+02 0.  0.
         12    1    1    2    0    0  0.35822006959E+02 -0.66564980983E+01  0.23581713698E+02  0.43400718548E+02  0.00000000000E+00 0. -1.
         11    1    3    3    0    0 -0.33138939100E+01 -0.51202292605E+01 -0.21328646318E+01  0.64612500591E+01  0.51100000000E-03 0. -1.
        -11    1    3    3    0    0 -0.20305777708E+02  0.98495351655E+01 -0.16765840262E+02  0.28114610992E+02  0.51100000000E-03 0.  1.
         12    1    3    3    0    0 -0.12202335342E+02  0.19271921934E+01 -0.46830088051E+01  0.13211420401E+02  0.00000000000E+00 0. -1.
</event>
<event>
 7    1  0.9175399E-010  0.4778725E+02  0.7816164E-02  0.1312668E+00
        -11   -1    0    0    0    0  0.00000000000E+00  0.00000000000E+00  0.45593999997E+02  0.45594000000E+02  0.51100000000E-03 0. -1.
         11   -1    0    0    0    0 -0.00000000000E+00 -0.00000000000E+00 -0.45593999997E+02  0.45594000000E+02  0.51100000000E-03 0.  1.
    9900012    2    1    2    0    0  0.22040422182E+02  0.29492331215E+02  0.22979281708E+02  0.47787248874E+02  0.19999898917E+02 0.  0.
        -12    1    1    2    0    0 -0.22040422182E+02 -0.29492331215E+02 -0.22979281708E+02  0.43400751126E+02  0.00000000000E+00 0.  1.
         11    1    3    3    0    0  0.66330137729E+01  0.17296071558E+02  0.15249160476E+02  0.23993496172E+02  0.51100000000E-03 0. -1.
        -11    1    3    3    0    0  0.10041723881E+02  0.12329488619E+01  0.50044151100E+01  0.11287185311E+02  0.51100000000E-03 0.  1.
         12    1    3    3    0    0  0.53656845278E+01  0.10963310795E+02  0.27257061223E+01  0.12506567391E+02  0.00000000000E+00 0. -1.
</event>
<event>
 7    1  0.9175399E-010  0.4778727E+02  0.7816164E-02  0.1312668E+00
        -11   -1    0    0    0    0  0.00000000000E+00  0.00000000000E+00  0.45593999997E+02  0.45594000000E+02  0.51100000000E-03 0. -1.
         11   -1    0    0    0    0 -0.00000000000E+00 -0.00000000000E+00 -0.45593999997E+02  0.45594000000E+02  0.51100000000E-03 0.  1.
    9900012    2    1    2    0    0 -0.30942601878E+02 -0.19777350753E+02 -0.23130823140E+02  0.47787271977E+02  0.20000004254E+02 0.  0.
         12    1    1    2    0    0  0.30942601878E+02  0.19777350753E+02  0.23130823140E+02  0.43400728023E+02  0.00000000000E+00 0. -1.
         11    1    3    3    0    0 -0.17692315553E+02 -0.61271507571E+01 -0.19638546606E+02  0.27133604978E+02  0.51100000000E-03 0. -1.
        -11    1    3    3    0    0 -0.32780373017E+01 -0.58673583730E+00 -0.25457219054E+01  0.41917165666E+01  0.51100000000E-03 0.  1.
         12    1    3    3    0    0 -0.99722490236E+01 -0.13063464158E+02 -0.94655462819E+00  0.16461950433E+02  0.00000000000E+00 0. -1.
</event>
<event>
 7    1  0.9175399E-010  0.4778727E+02  0.7816164E-02  0.1312668E+00
        -11   -1    0    0    0    0  0.00000000000E+00  0.00000000000E+00  0.45593999997E+02  0.45594000000E+02  0.51100000000E-03 0. -1.
         11   -1    0    0    0    0 -0.00000000000E+00 -0.00000000000E+00 -0.45593999997E+02  0.45594000000E+02  0.51100000000E-03 0.  1.
    9900012    2    1    2    0    0 -0.30651650793E+02 -0.20157650195E+02 -0.23189842397E+02  0.47787270189E+02  0.19999996100E+02 0.  0.
         12    1    1    2    0    0  0.30651650793E+02  0.20157650195E+02  0.23189842397E+02  0.43400729811E+02  0.00000000000E+00 0. -1.
         11    1    3    3    0    0 -0.18948185379E+00  0.12902462787E+01 -0.98687593132E+00  0.16354091835E+01  0.51100000000E-03 0. -1.
        -11    1    3    3    0    0 -0.16359627374E+02 -0.82190974253E+01 -0.23836706329E+01  0.18462742381E+02  0.51100000000E-03 0.  1.
        -12    1    3    3    0    0 -0.14102541566E+02 -0.13228799048E+02 -0.19819295833E+02  0.27689118624E+02  0.00000000000E+00 0.  1.
</event>
<event>
 7    1  0.9175399E-010  0.4778727E+02  0.7816164E-02  0.1312668E+00
        -11   -1    0    0    0    0  0.00000000000E+00  0.00000000000E+00  0.45593999997E+02  0.45594000000E+02  0.51100000000E-03 0. -1.
         11   -1    0    0    0    0 -0.00000000000E+00 -0.00000000000E+00 -0.45593999997E+02  0.45594000000E+02  0.51100000000E-03 0.  1.
    9900012    2    1    2    0    0  0.19649977789E+02 -0.11473114775E+02  0.36957672866E+02  0.47787267594E+02  0.19999984267E+02 0.  0.
        -12    1    1    2    0    0 -0.19649977789E+02  0.11473114775E+02 -0.36957672866E+02  0.43400732406E+02  0.00000000000E+00 0.  1.
         11    1    3    3    0    0  0.94542422572E+01 -0.39100888613E+01  0.35948850447E+01  0.10844108553E+02  0.51100000000E-03 0.  1.
        -11    1    3    3    0    0  0.69965076399E+01 -0.11323727139E+01  0.24664873803E+02  0.25662996456E+02  0.51100000000E-03 0. -1.
         12    1    3    3    0    0  0.31992278919E+01 -0.64306531995E+01  0.86979140185E+01  0.11280162585E+02  0.00000000000E+00 0. -1.
</event>
<event>
 7    1  0.9175399E-010  0.4778727E+02  0.7816164E-02  0.1312668E+00
        -11   -1    0    0    0    0  0.00000000000E+00  0.00000000000E+00  0.45593999997E+02  0.45594000000E+02  0.51100000000E-03 0. -1.
         11   -1    0    0    0    0 -0.00000000000E+00 -0.00000000000E+00 -0.45593999997E+02  0.45594000000E+02  0.51100000000E-03 0.  1.
    9900012    2    1    2    0    0 -0.10174519118E+02 -0.19464022503E-01 -0.42191255975E+02  0.47787270756E+02  0.19999998684E+02 0.  0.
         12    1    1    2    0    0  0.10174519118E+02  0.19464022503E-01  0.42191255975E+02  0.43400729244E+02  0.00000000000E+00 0. -1.
         11    1    3    3    0    0 -0.15174238762E+02  0.16387509837E+01 -0.33420718527E+02  0.36740814552E+02  0.51100000000E-03 0.  1.
        -11    1    3    3    0    0  0.28425863036E+01  0.55252426100E+00 -0.17677303846E+01  0.33927055466E+01  0.51100000000E-03 0. -1.
        -12    1    3    3    0    0  0.21571333402E+01 -0.22107392672E+01 -0.70028070634E+01  0.76537506572E+01  0.00000000000E+00 0.  1.
</event>
<event>
 7    1  0.9175399E-010  0.4778727E+02  0.7816164E-02  0.1312668E+00
        -11   -1    0    0    0    0  0.00000000000E+00  0.00000000000E+00  0.45593999997E+02  0.45594000000E+02  0.51100000000E-03 0. -1.
         11   -1    0    0    0    0 -0.00000000000E+00 -0.00000000000E+00 -0.45593999997E+02  0.45594000000E+02  0.51100000000E-03 0.  1.
    9900012    2    1    2    0    0 -0.44856526063E+01  0.11653846070E+02  0.41565495405E+02  0.47787267105E+02  0.19999982039E+02 0.  0.
        -12    1    1    2    0    0  0.44856526063E+01 -0.11653846070E+02 -0.41565495405E+02  0.43400732895E+02  0.00000000000E+00 0.  1.
         11    1    3    3    0    0 -0.63968611787E+01  0.96981294785E+01  0.33746112135E+02  0.35689965435E+02  0.51100000000E-03 0. -1.
        -11    1    3    3    0    0  0.44124578847E+01  0.39267931339E+01  0.60452780668E+01  0.84519155265E+01  0.51100000000E-03 0.  1.
         12    1    3    3    0    0 -0.25012493123E+01 -0.19710765426E+01  0.17741052039E+01  0.36453861433E+01  0.00000000000E+00 0. -1.
</event>
<event>
 7    1  0.9175399E-010  0.4778727E+02  0.7816164E-02  0.1312668E+00
        -11   -1    0    0    0    0  0.00000000000E+00  0.00000000000E+00  0.45593999997E+02  0.45594000000E+02  0.51100000000E-03 0. -1.
         11   -1    0    0    0    0 -0.00000000000E+00 -0.00000000000E+00 -0.45593999997E+02  0.45594000000E+02  0.51100000000E-03 0.  1.
    9900012    2    1    2    0    0  0.38311311755E+02  0.37699348381E+01  0.20041306205E+02  0.47787274528E+02  0.20000015884E+02 0.  0.
        -12    1    1    2    0    0 -0.38311311755E+02 -0.37699348381E+01 -0.20041306205E+02  0.43400725472E+02  0.00000000000E+00 0.  1.
         11    1    3    3    0    0  0.23248128400E+01  0.39826754027E+00  0.19414081497E+01  0.30549038675E+01  0.51100000000E-03 0. -1.
        -11    1    3    3    0    0  0.30310051567E+02  0.42953294994E+01  0.22074339900E+02  0.37741562816E+02  0.51100000000E-03 0.  1.
        -12    1    3    3    0    0  0.56764473479E+01 -0.92366220154E+00 -0.39744418441E+01  0.69908078451E+01  0.00000000000E+00 0.  1.
</event>
<event>
 7    1  0.1006371E-009  0.4778727E+02  0.7816164E-02  0.1312668E+00
        -11   -1    0    0    0    0  0.00000000000E+00  0.00000000000E+00  0.45593999997E+02  0.45594000000E+02  0.51100000000E-03 0.  1.
         11   -1    0    0    0    0 -0.00000000000E+00 -0.00000000000E+00 -0.45593999997E+02  0.45594000000E+02  0.51100000000E-03 0. -1.
    9900012    2    1    2    0    0 -0.30353639217E+02 -0.13637039798E+02 -0.27862359912E+02  0.47787269959E+02  0.19999995053E+02 0.  0.
         12    1    1    2    0    0  0.30353639217E+02  0.13637039798E+02  0.27862359912E+02  0.43400730041E+02  0.00000000000E+00 0. -1.
         11    1    3    3    0    0 -0.92886791519E+01 -0.72842108290E+01 -0.17780975098E+01  0.11937374871E+02  0.51100000000E-03 0. -1.
        -11    1    3    3    0    0 -0.14478831175E+02  0.12235694363E+01 -0.14644895460E+02  0.20630236006E+02  0.51100000000E-03 0.  1.
         12    1    3    3    0    0 -0.65861288898E+01 -0.75763984058E+01 -0.11439366942E+02  0.15219659082E+02  0.00000000000E+00 0. -1.
</event>
<event>
 7    1  0.9175399E-010  0.4778727E+02  0.7816164E-02  0.1312668E+00
        -11   -1    0    0    0    0  0.00000000000E+00  0.00000000000E+00  0.45593999997E+02  0.45594000000E+02  0.51100000000E-03 0. -1.
         11   -1    0    0    0    0 -0.00000000000E+00 -0.00000000000E+00 -0.45593999997E+02  0.45594000000E+02  0.51100000000E-03 0.  1.
    9900012    2    1    2    0    0  0.12572430247E+02  0.27227837074E+02  0.31371994512E+02  0.47787272429E+02  0.20000006311E+02 0.  0.
        -12    1    1    2    0    0 -0.12572430247E+02 -0.27227837074E+02 -0.31371994512E+02  0.43400727571E+02  0.00000000000E+00 0.  1.
         11    1    3    3    0    0  0.11904962712E+02  0.11591132443E+02  0.25258171047E+02  0.30233387064E+02  0.51100000000E-03 0. -1.
        -11    1    3    3    0    0 -0.19019900096E+01  0.87283286270E+01  0.45250585657E+01  0.10013862487E+02  0.51100000000E-03 0.  1.
         12    1    3    3    0    0  0.25694575447E+01  0.69083760042E+01  0.15887648991E+01  0.75400228776E+01  0.00000000000E+00 0. -1.
</event>
<event>
 7    1  0.9175399E-010  0.4778727E+02  0.7816164E-02  0.1312668E+00
        -11   -1    0    0    0    0  0.00000000000E+00  0.00000000000E+00  0.45593999997E+02  0.45594000000E+02  0.51100000000E-03 0. -1.
         11   -1    0    0    0    0 -0.00000000000E+00 -0.00000000000E+00 -0.45593999997E+02  0.45594000000E+02  0.51100000000E-03 0.  1.
    9900012    2    1    2    0    0 -0.31058607837E+02  0.17288651008E+02 -0.24901581126E+02  0.47787270547E+02  0.19999997733E+02 0.  0.
         12    1    1    2    0    0  0.31058607837E+02 -0.17288651008E+02  0.24901581126E+02  0.43400729453E+02  0.00000000000E+00 0. -1.
         11    1    3    3    0    0 -0.14945740479E+02  0.18010101144E+02 -0.10617753364E+02  0.25699719617E+02  0.51100000000E-03 0. -1.
        -11    1    3    3    0    0 -0.13943656782E+02  0.11336819299E+01 -0.12026954408E+02  0.18448805700E+02  0.51100000000E-03 0.  1.
         12    1    3    3    0    0 -0.21692105762E+01 -0.18551320659E+01 -0.22568733552E+01  0.36387452297E+01  0.00000000000E+00 0. -1.
</event>
<event>
 7    1  0.9175399E-010  0.4778727E+02  0.7816164E-02  0.1312668E+00
        -11   -1    0    0    0    0  0.00000000000E+00  0.00000000000E+00  0.45593999997E+02  0.45594000000E+02  0.51100000000E-03 0.  1.
         11   -1    0    0    0    0 -0.00000000000E+00 -0.00000000000E+00 -0.45593999997E+02  0.45594000000E+02  0.51100000000E-03 0. -1.
    9900012    2    1    2    0    0 -0.36239955055E+02  0.22857377729E+02  0.69158614671E+01  0.47787271908E+02  0.20000003939E+02 0.  0.
         12    1    1    2    0    0  0.36239955055E+02 -0.22857377729E+02 -0.69158614671E+01  0.43400728092E+02  0.00000000000E+00 0. -1.
         11    1    3    3    0    0 -0.27825396694E+02  0.13837959745E+02 -0.47926420349E+00  0.31080082457E+02  0.51100000000E-03 0. -1.
        -11    1    3    3    0    0 -0.24941935442E+01 -0.14942801301E+01  0.12245705157E+01  0.31549085172E+01  0.51100000000E-03 0.  1.
         12    1    3    3    0    0 -0.59203648173E+01  0.10513698114E+02  0.61705551549E+01  0.13552280935E+02  0.00000000000E+00 0. -1.
</event>
<event>
 7    1  0.9175399E-010  0.4778727E+02  0.7816164E-02  0.1312668E+00
        -11   -1    0    0    0    0  0.00000000000E+00  0.00000000000E+00  0.45593999997E+02  0.45594000000E+02  0.51100000000E-03 0. -1.
         11   -1    0    0    0    0 -0.00000000000E+00 -0.00000000000E+00 -0.45593999997E+02  0.45594000000E+02  0.51100000000E-03 0.  1.
    9900012    2    1    2    0    0 -0.29094118324E+02 -0.31819244602E+02 -0.49690688365E+01  0.47787266214E+02  0.19999977975E+02 0.  0.
         12    1    1    2    0    0  0.29094118324E+02  0.31819244602E+02  0.49690688365E+01  0.43400733786E+02  0.00000000000E+00 0. -1.
         11    1    3    3    0    0 -0.15888140405E+02 -0.23867372077E+02  0.21893935284E+01  0.28755484689E+02  0.51100000000E-03 0. -1.
        -11    1    3    3    0    0 -0.12424846797E+02 -0.76880821251E+01 -0.31595807595E+01  0.14948791775E+02  0.51100000000E-03 0.  1.
         12    1    3    3    0    0 -0.78113112120E+00 -0.26379039995E+00 -0.39988816054E+01  0.40829897499E+01  0.00000000000E+00 0. -1.
</event>
<event>
 7    1  0.9175399E-010  0.4778726E+02  0.7816164E-02  0.1312668E+00
        -11   -1    0    0    0    0  0.00000000000E+00  0.00000000000E+00  0.45593999997E+02  0.45594000000E+02  0.51100000000E-03 0. -1.
         11   -1    0    0    0    0 -0.00000000000E+00 -0.00000000000E+00 -0.45593999997E+02  0.45594000000E+02  0.51100000000E-03 0.  1.
    9900012    2    1    2    0    0 -0.31770052359E+02  0.13515297670E+02 -0.26298756519E+02  0.47787261614E+02  0.19999957003E+02 0.  0.
         12    1    1    2    0    0  0.31770052359E+02 -0.13515297670E+02  0.26298756519E+02  0.43400738386E+02  0.00000000000E+00 0. -1.
         11    1    3    3    0    0 -0.17610392325E+02  0.11569995622E+02 -0.15358928151E+02  0.26074650347E+02  0.51100000000E-03 0. -1.
        -11    1    3    3    0    0 -0.11487042427E+02  0.52300409084E+01 -0.11925857431E+02  0.17364663756E+02  0.51100000000E-03 0.  1.
        -12    1    3    3    0    0 -0.26726176071E+01 -0.32847388600E+01  0.98602906241E+00  0.43479475117E+01  0.00000000000E+00 0.  1.
</event>
<event>
 7    1  0.9175399E-010  0.4778727E+02  0.7816164E-02  0.1312668E+00
        -11   -1    0    0    0    0  0.00000000000E+00  0.00000000000E+00  0.45593999997E+02  0.45594000000E+02  0.51100000000E-03 0. -1.
         11   -1    0    0    0    0 -0.00000000000E+00 -0.00000000000E+00 -0.45593999997E+02  0.45594000000E+02  0.51100000000E-03 0.  1.
    9900012    2    1    2    0    0 -0.16819758146E+02 -0.27280611877E+02  0.29265803723E+02  0.47787270559E+02  0.19999997787E+02 0.  0.
        -12    1    1    2    0    0  0.16819758146E+02  0.27280611877E+02 -0.29265803723E+02  0.43400729441E+02  0.00000000000E+00 0.  1.
         11    1    3    3    0    0 -0.96349891469E+01 -0.15938445764E+02  0.82213663734E+01  0.20358239967E+02  0.51100000000E-03 0.  1.
        -11    1    3    3    0    0 -0.82085090906E+01 -0.89924254816E+01  0.21610335629E+02  0.24804232377E+02  0.51100000000E-03 0. -1.
         12    1    3    3    0    0  0.10237400918E+01 -0.23497406313E+01 -0.56589827979E+00  0.26247982157E+01  0.00000000000E+00 0. -1.
</event>
<event>
 7    1  0.9175399E-010  0.4778727E+02  0.7816164E-02  0.1312668E+00
        -11   -1    0    0    0    0  0.00000000000E+00  0.00000000000E+00  0.45593999997E+02  0.45594000000E+02  0.51100000000E-03 0. -1.
         11   -1    0    0    0    0 -0.00000000000E+00 -0.00000000000E+00 -0.45593999997E+02  0.45594000000E+02  0.51100000000E-03 0.  1.
    9900012    2    1    2    0    0 -0.19494571950E+02  0.35481050851E+02 -0.15642249543E+02  0.47787271022E+02  0.19999999899E+02 0.  0.
         12    1    1    2    0    0  0.19494571950E+02 -0.35481050851E+02  0.15642249543E+02  0.43400728978E+02  0.00000000000E+00 0. -1.
         11    1    3    3    0    0 -0.16145360538E+01  0.11096271033E+02  0.24587797149E+01  0.11479527667E+02  0.51100000000E-03 0. -1.
        -11    1    3    3    0    0 -0.17361156030E+02  0.21882069540E+02 -0.13453453490E+02  0.31003711344E+02  0.51100000000E-03 0.  1.
         12    1    3    3    0    0 -0.51887986648E+00  0.25027102777E+01 -0.46475757680E+01  0.53040320106E+01  0.00000000000E+00 0. -1.
</event>
<event>
 7    1  0.9175399E-010  0.4778725E+02  0.7816164E-02  0.1312668E+00
        -11   -1    0    0    0    0  0.00000000000E+00  0.00000000000E+00  0.45593999997E+02  0.45594000000E+02  0.51100000000E-03 0. -1.
         11   -1    0    0    0    0 -0.00000000000E+00 -0.00000000000E+00 -0.45593999997E+02  0.45594000000E+02  0.51100000000E-03 0.  1.
    9900012    2    1    2    0    0 -0.39493977874E+02 -0.17349257849E+02 -0.47805863995E+01  0.47787250668E+02  0.19999907096E+02 0.  0.
         12    1    1    2    0    0  0.39493977874E+02  0.17349257849E+02  0.47805863995E+01  0.43400749332E+02  0.00000000000E+00 0. -1.
         11    1    3    3    0    0 -0.17391452023E+00  0.91349047530E+00 -0.18946975675E+01  0.21105900223E+01  0.51100000000E-03 0. -1.
        -11    1    3    3    0    0 -0.10989128865E+01 -0.10066626814E+01 -0.34271529796E+01  0.37371589600E+01  0.51100000000E-03 0.  1.
        -12    1    3    3    0    0 -0.38221150467E+02 -0.17256085643E+02  0.54126414757E+00  0.41939501686E+02  0.00000000000E+00 0.  1.
</event>
<event>
 7    1  0.9175399E-010  0.4778728E+02  0.7816164E-02  0.1312668E+00
        -11   -1    0    0    0    0  0.00000000000E+00  0.00000000000E+00  0.45593999997E+02  0.45594000000E+02  0.51100000000E-03 0. -1.
         11   -1    0    0    0    0 -0.00000000000E+00 -0.00000000000E+00 -0.45593999997E+02  0.45594000000E+02  0.51100000000E-03 0.  1.
    9900012    2    1    2    0    0 -0.27303857680E+02 -0.30622825484E+02 -0.14155012189E+02  0.47787280479E+02  0.20000043017E+02 0.  0.
         12    1    1    2    0    0  0.27303857680E+02  0.30622825484E+02  0.14155012189E+02  0.43400719521E+02  0.00000000000E+00 0. -1.
         11    1    3    3    0    0 -0.54971687456E+01 -0.13257436371E+02 -0.13192368598E+02  0.19494026594E+02  0.51100000000E-03 0. -1.
        -11    1    3    3    0    0 -0.10364565840E+02 -0.11203904430E+02 -0.10298821043E+01  0.15297462435E+02  0.51100000000E-03 0.  1.
         12    1    3    3    0    0 -0.11442123094E+02 -0.61614846833E+01  0.67238513875E-01  0.12995791451E+02  0.00000000000E+00 0. -1.
</event>
<event>
 7    1  0.9175399E-010  0.4778727E+02  0.7816164E-02  0.1312668E+00
        -11   -1    0    0    0    0  0.00000000000E+00  0.00000000000E+00  0.45593999997E+02  0.45594000000E+02  0.51100000000E-03 0.  1.
         11   -1    0    0    0    0 -0.00000000000E+00 -0.00000000000E+00 -0.45593999997E+02  0.45594000000E+02  0.51100000000E-03 0. -1.
    9900012    2    1    2    0    0 -0.89509366921E+01 -0.39908000077E+02  0.14520854696E+02  0.47787274673E+02  0.20000016545E+02 0.  0.
        -12    1    1    2    0    0  0.89509366921E+01  0.39908000077E+02 -0.14520854696E+02  0.43400725327E+02  0.00000000000E+00 0.  1.
         11    1    3    3    0    0  0.79993777207E+00 -0.42185447600E+01 -0.17751960170E+00  0.42973868573E+01  0.51100000000E-03 0.  1.
        -11    1    3    3    0    0 -0.68292048697E+01 -0.19196023645E+02 -0.11813341948E+01  0.20408844006E+02  0.51100000000E-03 0. -1.
        -12    1    3    3    0    0 -0.29216695944E+01 -0.16493431671E+02  0.15879708493E+02  0.23081043810E+02  0.00000000000E+00 0.  1.
</event>
<event>
 7    1  0.9175399E-010  0.4778725E+02  0.7816164E-02  0.1312668E+00
        -11   -1    0    0    0    0  0.00000000000E+00  0.00000000000E+00  0.45593999997E+02  0.45594000000E+02  0.51100000000E-03 0.  1.
         11   -1    0    0    0    0 -0.00000000000E+00 -0.00000000000E+00 -0.45593999997E+02  0.45594000000E+02  0.51100000000E-03 0. -1.
    9900012    2    1    2    0    0  0.42223956521E+02  0.74289063703E+01 -0.67508425110E+01  0.47787250828E+02  0.19999907823E+02 0.  0.
        -12    1    1    2    0    0 -0.42223956521E+02 -0.74289063703E+01  0.67508425110E+01  0.43400749172E+02  0.00000000000E+00 0.  1.
         11    1    3    3    0    0  0.13662922923E+02  0.20975027404E+01  0.12819128844E+01  0.13882301014E+02  0.51100000000E-03 0. -1.
        -11    1    3    3    0    0  0.29141392937E+02  0.77639143115E+01 -0.85599640205E+01  0.31349196673E+02  0.51100000000E-03 0.  1.
        -12    1    3    3    0    0 -0.58035933967E+00 -0.24325106816E+01  0.52720862508E+00  0.25557531402E+01  0.00000000000E+00 0.  1.
</event>
<event>
 7    1  0.9175399E-010  0.4778727E+02  0.7816164E-02  0.1312668E+00
        -11   -1    0    0    0    0  0.00000000000E+00  0.00000000000E+00  0.45593999997E+02  0.45594000000E+02  0.51100000000E-03 0. -1.
         11   -1    0    0    0    0 -0.00000000000E+00 -0.00000000000E+00 -0.45593999997E+02  0.45594000000E+02  0.51100000000E-03 0.  1.
    9900012    2    1    2    0    0 -0.11709786920E+02  0.42868436155E+01  0.41570747048E+02  0.47787272494E+02  0.20000006611E+02 0.  0.
        -12    1    1    2    0    0  0.11709786920E+02 -0.42868436155E+01 -0.41570747048E+02  0.43400727506E+02  0.00000000000E+00 0.  1.
         11    1    3    3    0    0 -0.69073258038E+01  0.71257416633E+01  0.30810616631E+02  0.32369452288E+02  0.51100000000E-03 0. -1.
        -11    1    3    3    0    0 -0.75349006924E+01 -0.27855406601E+01  0.94002605362E+01  0.12365228005E+02  0.51100000000E-03 0.  1.
         12    1    3    3    0    0  0.27324395765E+01 -0.53357387656E-01  0.13598698810E+01  0.30525922006E+01  0.00000000000E+00 0. -1.
</event>
<event>
 7    1  0.9175399E-010  0.4778727E+02  0.7816164E-02  0.1312668E+00
        -11   -1    0    0    0    0  0.00000000000E+00  0.00000000000E+00  0.45593999997E+02  0.45594000000E+02  0.51100000000E-03 0.  1.
         11   -1    0    0    0    0 -0.00000000000E+00 -0.00000000000E+00 -0.45593999997E+02  0.45594000000E+02  0.51100000000E-03 0. -1.
    9900012    2    1    2    0    0  0.19255489581E+02 -0.38838684434E+02  0.20991656432E+01  0.47787265168E+02  0.19999973205E+02 0.  0.
        -12    1    1    2    0    0 -0.19255489581E+02  0.38838684434E+02 -0.20991656432E+01  0.43400734832E+02  0.00000000000E+00 0.  1.
         11    1    3    3    0    0  0.47499013692E+01 -0.15673153187E+02  0.38529712043E+01  0.16824228993E+02  0.51100000000E-03 0. -1.
        -11    1    3    3    0    0  0.83155910176E+01 -0.66547659768E+01 -0.67827225605E+01  0.12626966768E+02  0.51100000000E-03 0.  1.
        -12    1    3    3    0    0  0.61899971942E+01 -0.16510765271E+02  0.50289169994E+01  0.18336069406E+02  0.00000000000E+00 0.  1.
</event>
<event>
 7    1  0.9175399E-010  0.4778727E+02  0.7816164E-02  0.1312668E+00
        -11   -1    0    0    0    0  0.00000000000E+00  0.00000000000E+00  0.45593999997E+02  0.45594000000E+02  0.51100000000E-03 0. -1.
         11   -1    0    0    0    0 -0.00000000000E+00 -0.00000000000E+00 -0.45593999997E+02  0.45594000000E+02  0.51100000000E-03 0.  1.
    9900012    2    1    2    0    0 -0.25818617464E+01 -0.77023581916E+01  0.42633683902E+02  0.47787270342E+02  0.19999996796E+02 0.  0.
        -12    1    1    2    0    0  0.25818617464E+01  0.77023581916E+01 -0.42633683902E+02  0.43400729658E+02  0.00000000000E+00 0.  1.
         11    1    3    3    0    0 -0.96292248423E+01 -0.22400899357E+01  0.20120152107E+02  0.22417861073E+02  0.51100000000E-03 0. -1.
        -11    1    3    3    0    0 -0.89432104841E+00 -0.61891773822E+00  0.87978285259E-01  0.10911506514E+01  0.51100000000E-03 0.  1.
         12    1    3    3    0    0  0.79416841443E+01 -0.48433505177E+01  0.22425553510E+02  0.24278258618E+02  0.00000000000E+00 0. -1.
</event>
<event>
 7    1  0.9175399E-010  0.4778726E+02  0.7816164E-02  0.1312668E+00
        -11   -1    0    0    0    0  0.00000000000E+00  0.00000000000E+00  0.45593999997E+02  0.45594000000E+02  0.51100000000E-03 0. -1.
         11   -1    0    0    0    0 -0.00000000000E+00 -0.00000000000E+00 -0.45593999997E+02  0.45594000000E+02  0.51100000000E-03 0.  1.
    9900012    2    1    2    0    0  0.13875235980E+02  0.24544043529E+01  0.41049700519E+02  0.47787260525E+02  0.19999952039E+02 0.  0.
        -12    1    1    2    0    0 -0.13875235980E+02 -0.24544043529E+01 -0.41049700519E+02  0.43400739475E+02  0.00000000000E+00 0.  1.
         11    1    3    3    0    0  0.93723491521E+01 -0.44820482838E+01  0.89164723906E+01  0.13690623273E+02  0.51100000000E-03 0. -1.
        -11    1    3    3    0    0 -0.18606223067E+01  0.67941458772E-01  0.79240449415E+01  0.81398415161E+01  0.51100000000E-03 0.  1.
         12    1    3    3    0    0  0.63635091346E+01  0.68685111779E+01  0.24209183187E+02  0.25956795736E+02  0.00000000000E+00 0. -1.
</event>
<event>
 7    1  0.9175399E-010  0.4778723E+02  0.7816164E-02  0.1312668E+00
        -11   -1    0    0    0    0  0.00000000000E+00  0.00000000000E+00  0.45593999997E+02  0.45594000000E+02  0.51100000000E-03 0.  1.
         11   -1    0    0    0    0 -0.00000000000E+00 -0.00000000000E+00 -0.45593999997E+02  0.45594000000E+02  0.51100000000E-03 0. -1.
    9900012    2    1    2    0    0  0.16010511973E+02  0.39392232243E+02  0.86915156537E+01  0.47787229280E+02  0.19999809578E+02 0.  0.
         12    1    1    2    0    0 -0.16010511973E+02 -0.39392232243E+02 -0.86915156537E+01  0.43400770720E+02  0.00000000000E+00 0. -1.
         11    1    3    3    0    0  0.10238244977E+02  0.83272911848E+01  0.93508692372E+01  0.16174182960E+02  0.51100000000E-03 0. -1.
        -11    1    3    3    0    0  0.45054580278E+01  0.25720119625E+02 -0.66214809824E+00  0.26120148275E+02  0.51100000000E-03 0.  1.
         12    1    3    3    0    0  0.12668089683E+01  0.53448214336E+01  0.27945148023E-02  0.54928980447E+01  0.00000000000E+00 0. -1.
</event>
<event>
 7    1  0.9175399E-010  0.4778728E+02  0.7816164E-02  0.1312668E+00
        -11   -1    0    0    0    0  0.00000000000E+00  0.00000000000E+00  0.45593999997E+02  0.45594000000E+02  0.51100000000E-03 0. -1.
         11   -1    0    0    0    0 -0.00000000000E+00 -0.00000000000E+00 -0.45593999997E+02  0.45594000000E+02  0.51100000000E-03 0.  1.
    9900012    2    1    2    0    0  0.16109048994E+02 -0.36640307085E+02 -0.16781195334E+02  0.47787284803E+02  0.20000062729E+02 0.  0.
         12    1    1    2    0    0 -0.16109048994E+02  0.36640307085E+02  0.16781195334E+02  0.43400715197E+02  0.00000000000E+00 0. -1.
         11    1    3    3    0    0  0.59103859552E+01 -0.15009011363E+02  0.23753803678E+01  0.16304769744E+02  0.51100000000E-03 0.  1.
        -11    1    3    3    0    0  0.68727794468E+01 -0.87299256444E+01 -0.12019561679E+02  0.16368156961E+02  0.51100000000E-03 0. -1.
        -12    1    3    3    0    0  0.33258835919E+01 -0.12901370078E+02 -0.71370140230E+01  0.15114358098E+02  0.00000000000E+00 0.  1.
</event>
<event>
 7    1  0.9175399E-010  0.4778727E+02  0.7816164E-02  0.1312668E+00
        -11   -1    0    0    0    0  0.00000000000E+00  0.00000000000E+00  0.45593999997E+02  0.45594000000E+02  0.51100000000E-03 0. -1.
         11   -1    0    0    0    0 -0.00000000000E+00 -0.00000000000E+00 -0.45593999997E+02  0.45594000000E+02  0.51100000000E-03 0.  1.
    9900012    2    1    2    0    0  0.27795045742E+02 -0.14739507609E+02  0.29896583743E+02  0.47787269916E+02  0.19999994855E+02 0.  0.
        -12    1    1    2    0    0 -0.27795045742E+02  0.14739507609E+02 -0.29896583743E+02  0.43400730084E+02  0.00000000000E+00 0.  1.
         11    1    3    3    0    0  0.18288529477E+02 -0.80819434861E+01  0.17864551881E+02  0.26812876293E+02  0.51100000000E-03 0. -1.
        -11    1    3    3    0    0 -0.12763371259E+01  0.26425739382E+01  0.18508055067E+01  0.34695410017E+01  0.51100000000E-03 0.  1.
        -12    1    3    3    0    0  0.10782853391E+02 -0.93001380606E+01  0.10181226355E+02  0.17504852621E+02  0.00000000000E+00 0.  1.
</event>
<event>
 7    1  0.9175399E-010  0.4778727E+02  0.7816164E-02  0.1312668E+00
        -11   -1    0    0    0    0  0.00000000000E+00  0.00000000000E+00  0.45593999997E+02  0.45594000000E+02  0.51100000000E-03 0.  1.
         11   -1    0    0    0    0 -0.00000000000E+00 -0.00000000000E+00 -0.45593999997E+02  0.45594000000E+02  0.51100000000E-03 0. -1.
    9900012    2    1    2    0    0  0.52444075847E+01  0.41917558908E+02  0.99517592272E+01  0.47787273423E+02  0.20000010845E+02 0.  0.
        -12    1    1    2    0    0 -0.52444075847E+01 -0.41917558908E+02 -0.99517592272E+01  0.43400726577E+02  0.00000000000E+00 0.  1.
         11    1    3    3    0    0 -0.23330207561E+01  0.34328379408E+02  0.71771228306E+01  0.35148139510E+02  0.51100000000E-03 0. -1.
        -11    1    3    3    0    0  0.15420395179E+01 -0.61776613776E+00  0.17300843586E+01  0.23984813997E+01  0.51100000000E-03 0.  1.
         12    1    3    3    0    0  0.60353888229E+01  0.82069456379E+01  0.10445520380E+01  0.10240652514E+02  0.00000000000E+00 0. -1.
</event>
<event>
 7    1  0.9175399E-010  0.4778728E+02  0.7816164E-02  0.1312668E+00
        -11   -1    0    0    0    0  0.00000000000E+00  0.00000000000E+00  0.45593999997E+02  0.45594000000E+02  0.51100000000E-03 0.  1.
         11   -1    0    0    0    0 -0.00000000000E+00 -0.00000000000E+00 -0.45593999997E+02  0.45594000000E+02  0.51100000000E-03 0. -1.
    9900012    2    1    2    0    0  0.43285914733E+02  0.47437492023E+00  0.31188884391E+01  0.47787275226E+02  0.20000019066E+02 0.  0.
         12    1    1    2    0    0 -0.43285914733E+02 -0.47437492023E+00 -0.31188884391E+01  0.43400724774E+02  0.00000000000E+00 0. -1.
         11    1    3    3    0    0  0.74791841455E+01 -0.52802981302E+00  0.49928369620E+01  0.90080759409E+01  0.51100000000E-03 0. -1.
        -11    1    3    3    0    0  0.30549428910E+02  0.63000721332E+01 -0.53730936187E+00  0.31196910380E+02  0.51100000000E-03 0.  1.
        -12    1    3    3    0    0  0.52573016768E+01 -0.52976674000E+01 -0.13366391611E+01  0.75822889056E+01  0.00000000000E+00 0.  1.
</event>
<event>
 7    1  0.9175399E-010  0.4778728E+02  0.7816164E-02  0.1312668E+00
        -11   -1    0    0    0    0  0.00000000000E+00  0.00000000000E+00  0.45593999997E+02  0.45594000000E+02  0.51100000000E-03 0. -1.
         11   -1    0    0    0    0 -0.00000000000E+00 -0.00000000000E+00 -0.45593999997E+02  0.45594000000E+02  0.51100000000E-03 0.  1.
    9900012    2    1    2    0    0  0.91028690828E+01  0.15271479712E+01  0.42407882115E+02  0.47787275675E+02  0.20000021112E+02 0.  0.
        -12    1    1    2    0    0 -0.91028690828E+01 -0.15271479712E+01 -0.42407882115E+02  0.43400724325E+02  0.00000000000E+00 0.  1.
         11    1    3    3    0    0  0.19566982247E+01  0.31927573800E+01  0.56678924724E+01  0.67931857747E+01  0.51100000000E-03 0. -1.
        -11    1    3    3    0    0  0.54640548367E+00  0.64059409317E+01  0.22132204740E+02  0.23047106654E+02  0.51100000000E-03 0.  1.
        -12    1    3    3    0    0  0.65997653744E+01 -0.80715503406E+01  0.14607784902E+02  0.17946983246E+02  0.00000000000E+00 0.  1.
</event>
<event>
 7    1  0.9175399E-010  0.4778727E+02  0.7816164E-02  0.1312668E+00
        -11   -1    0    0    0    0  0.00000000000E+00  0.00000000000E+00  0.45593999997E+02  0.45594000000E+02  0.51100000000E-03 0. -1.
         11   -1    0    0    0    0 -0.00000000000E+00 -0.00000000000E+00 -0.45593999997E+02  0.45594000000E+02  0.51100000000E-03 0.  1.
    9900012    2    1    2    0    0 -0.25903363548E+02  0.11107291004E+02 -0.33004045846E+02  0.47787271910E+02  0.20000003945E+02 0.  0.
         12    1    1    2    0    0  0.25903363548E+02 -0.11107291004E+02  0.33004045846E+02  0.43400728090E+02  0.00000000000E+00 0. -1.
         11    1    3    3    0    0  0.18469986327E+01  0.37386163883E+01 -0.49514444577E+01  0.64734425869E+01  0.51100000000E-03 0. -1.
        -11    1    3    3    0    0 -0.18410739853E+02  0.40488609468E+00 -0.19780640430E+02  0.27025784184E+02  0.51100000000E-03 0.  1.
        -12    1    3    3    0    0 -0.93396223280E+01  0.69637885209E+01 -0.82719609586E+01  0.14288045139E+02  0.00000000000E+00 0.  1.
</event>
<event>
 7    1  0.9175399E-010  0.4778727E+02  0.7816164E-02  0.1312668E+00
        -11   -1    0    0    0    0  0.00000000000E+00  0.00000000000E+00  0.45593999997E+02  0.45594000000E+02  0.51100000000E-03 0. -1.
         11   -1    0    0    0    0 -0.00000000000E+00 -0.00000000000E+00 -0.45593999997E+02  0.45594000000E+02  0.51100000000E-03 0.  1.
    9900012    2    1    2    0    0  0.23160982632E+02 -0.22017938637E+02 -0.29366693787E+02  0.47787269104E+02  0.19999991155E+02 0.  0.
         12    1    1    2    0    0 -0.23160982632E+02  0.22017938637E+02  0.29366693787E+02  0.43400730896E+02  0.00000000000E+00 0. -1.
         11    1    3    3    0    0  0.10273799290E+02  0.86947535307E-01 -0.10283943562E+02  0.14536781183E+02  0.51100000000E-03 0. -1.
        -11    1    3    3    0    0  0.12925765493E+02 -0.15007056891E+02 -0.16207193702E+02  0.25592192131E+02  0.51100000000E-03 0.  1.
         12    1    3    3    0    0 -0.38582151166E-01 -0.70978292816E+01 -0.28755565227E+01  0.76582957901E+01  0.00000000000E+00 0. -1.
</event>
<event>
 7    1  0.9175399E-010  0.4778727E+02  0.7816164E-02  0.1312668E+00
        -11   -1    0    0    0    0  0.00000000000E+00  0.00000000000E+00  0.45593999997E+02  0.45594000000E+02  0.51100000000E-03 0. -1.
         11   -1    0    0    0    0 -0.00000000000E+00 -0.00000000000E+00 -0.45593999997E+02  0.45594000000E+02  0.51100000000E-03 0.  1.
    9900012    2    1    2    0    0  0.51327788503E+01 -0.72784206801E+01 -0.42477084200E+02  0.47787268342E+02  0.19999987680E+02 0.  0.
         12    1    1    2    0    0 -0.51327788503E+01  0.72784206801E+01  0.42477084200E+02  0.43400731658E+02  0.00000000000E+00 0. -1.
         11    1    3    3    0    0  0.45668334555E+00  0.50443575635E+00 -0.32595693777E+02  0.32602795404E+02  0.51100000000E-03 0. -1.
        -11    1    3    3    0    0 -0.11449060246E+01 -0.17759433063E+01 -0.51679765436E+01  0.55832576735E+01  0.51100000000E-03 0.  1.
         12    1    3    3    0    0  0.58210015294E+01 -0.60069131301E+01 -0.47134138790E+01  0.96012152643E+01  0.00000000000E+00 0. -1.
</event>
<event>
 7    1  0.9175399E-010  0.4778727E+02  0.7816164E-02  0.1312668E+00
        -11   -1    0    0    0    0  0.00000000000E+00  0.00000000000E+00  0.45593999997E+02  0.45594000000E+02  0.51100000000E-03 0. -1.
         11   -1    0    0    0    0 -0.00000000000E+00 -0.00000000000E+00 -0.45593999997E+02  0.45594000000E+02  0.51100000000E-03 0.  1.
    9900012    2    1    2    0    0 -0.18035865541E+02 -0.23723769116E+02  0.31551759623E+02  0.47787271870E+02  0.20000003762E+02 0.  0.
        -12    1    1    2    0    0  0.18035865541E+02  0.23723769116E+02 -0.31551759623E+02  0.43400728130E+02  0.00000000000E+00 0.  1.
         11    1    3    3    0    0 -0.16930040035E+02 -0.12948166165E+02  0.21510595010E+02  0.30281792559E+02  0.51100000000E-03 0. -1.
        -11    1    3    3    0    0 -0.37435364972E+01 -0.39404969155E+01  0.47477322461E+00  0.54559134270E+01  0.51100000000E-03 0.  1.
         12    1    3    3    0    0  0.26377109906E+01 -0.68351060357E+01  0.95663913885E+01  0.12049565884E+02  0.00000000000E+00 0. -1.
</event>
<event>
 7    1  0.9175399E-010  0.4778728E+02  0.7816164E-02  0.1312668E+00
        -11   -1    0    0    0    0  0.00000000000E+00  0.00000000000E+00  0.45593999997E+02  0.45594000000E+02  0.51100000000E-03 0. -1.
         11   -1    0    0    0    0 -0.00000000000E+00 -0.00000000000E+00 -0.45593999997E+02  0.45594000000E+02  0.51100000000E-03 0.  1.
    9900012    2    1    2    0    0 -0.73731320394E+01  0.25558971697E+02 -0.34292836569E+02  0.47787277077E+02  0.20000027503E+02 0.  0.
         12    1    1    2    0    0  0.73731320394E+01 -0.25558971697E+02  0.34292836569E+02  0.43400722923E+02  0.00000000000E+00 0. -1.
         11    1    3    3    0    0  0.68963158031E+00 -0.38248819616E+00  0.85430832459E+00  0.11626400610E+01  0.51100000000E-03 0. -1.
        -11    1    3    3    0    0 -0.12007924289E+02  0.16703672310E+02 -0.22844249325E+02  0.30741871151E+02  0.51100000000E-03 0.  1.
        -12    1    3    3    0    0  0.39451606690E+01  0.92377875837E+01 -0.12302895569E+02  0.15882765865E+02  0.00000000000E+00 0.  1.
</event>
<event>
 7    1  0.9175399E-010  0.4778727E+02  0.7816164E-02  0.1312668E+00
        -11   -1    0    0    0    0  0.00000000000E+00  0.00000000000E+00  0.45593999997E+02  0.45594000000E+02  0.51100000000E-03 0. -1.
         11   -1    0    0    0    0 -0.00000000000E+00 -0.00000000000E+00 -0.45593999997E+02  0.45594000000E+02  0.51100000000E-03 0.  1.
    9900012    2    1    2    0    0  0.30386443446E+02  0.19755494792E+02 -0.23874840186E+02  0.47787268282E+02  0.19999987404E+02 0.  0.
         12    1    1    2    0    0 -0.30386443446E+02 -0.19755494792E+02  0.23874840186E+02  0.43400731718E+02  0.00000000000E+00 0. -1.
         11    1    3    3    0    0  0.83823536754E+01  0.17111534092E+02 -0.93792752899E+01  0.21237684840E+02  0.51100000000E-03 0. -1.
        -11    1    3    3    0    0  0.15567640947E+02  0.10004555014E+01 -0.10244234564E+02  0.18662708751E+02  0.51100000000E-03 0.  1.
         12    1    3    3    0    0  0.64364488235E+01  0.16435051982E+01 -0.42513303323E+01  0.78868746908E+01  0.00000000000E+00 0. -1.
</event>
<event>
 7    1  0.9175399E-010  0.4778728E+02  0.7816164E-02  0.1312668E+00
        -11   -1    0    0    0    0  0.00000000000E+00  0.00000000000E+00  0.45593999997E+02  0.45594000000E+02  0.51100000000E-03 0. -1.
         11   -1    0    0    0    0 -0.00000000000E+00 -0.00000000000E+00 -0.45593999997E+02  0.45594000000E+02  0.51100000000E-03 0.  1.
    9900012    2    1    2    0    0  0.23412398491E+02 -0.15070010246E+02  0.33292294845E+02  0.47787279868E+02  0.20000040232E+02 0.  0.
        -12    1    1    2    0    0 -0.23412398491E+02  0.15070010246E+02 -0.33292294845E+02  0.43400720132E+02  0.00000000000E+00 0.  1.
         11    1    3    3    0    0  0.10061653061E+02 -0.65984598258E+01  0.21271127557E+02  0.24438441075E+02  0.51100000000E-03 0. -1.
        -11    1    3    3    0    0  0.91565154642E+01 -0.70103441961E-01  0.15553681344E+01  0.92879416575E+01  0.51100000000E-03 0.  1.
        -12    1    3    3    0    0  0.41942299655E+01 -0.84014469779E+01  0.10465799154E+02  0.14060897136E+02  0.00000000000E+00 0.  1.
</event>
<event>
 7    1  0.9175399E-010  0.4778727E+02  0.7816164E-02  0.1312668E+00
        -11   -1    0    0    0    0  0.00000000000E+00  0.00000000000E+00  0.45593999997E+02  0.45594000000E+02  0.51100000000E-03 0.  1.
         11   -1    0    0    0    0 -0.00000000000E+00 -0.00000000000E+00 -0.45593999997E+02  0.45594000000E+02  0.51100000000E-03 0. -1.
    9900012    2    1    2    0    0  0.41600748699E+01 -0.39341129674E+02  0.17849156539E+02  0.47787273093E+02  0.20000009339E+02 0.  0.
        -12    1    1    2    0    0 -0.41600748699E+01  0.39341129674E+02 -0.17849156539E+02  0.43400726907E+02  0.00000000000E+00 0.  1.
         11    1    3    3    0    0 -0.10958365429E+01 -0.14641979611E+02  0.54573783797E+01  0.15664335405E+02  0.51100000000E-03 0. -1.
        -11    1    3    3    0    0 -0.44354717489E+01 -0.47778635490E+01 -0.41763662283E+00  0.65326725264E+01  0.51100000000E-03 0.  1.
        -12    1    3    3    0    0  0.96913831617E+01 -0.19921286514E+02  0.12809414782E+02  0.25590265161E+02  0.00000000000E+00 0.  1.
</event>
<event>
 7    1  0.9175399E-010  0.4778727E+02  0.7816164E-02  0.1312668E+00
        -11   -1    0    0    0    0  0.00000000000E+00  0.00000000000E+00  0.45593999997E+02  0.45594000000E+02  0.51100000000E-03 0. -1.
         11   -1    0    0    0    0 -0.00000000000E+00 -0.00000000000E+00 -0.45593999997E+02  0.45594000000E+02  0.51100000000E-03 0.  1.
    9900012    2    1    2    0    0  0.21815752768E+02  0.12637739191E+02 -0.35326812313E+02  0.47787272023E+02  0.20000004463E+02 0.  0.
         12    1    1    2    0    0 -0.21815752768E+02 -0.12637739191E+02  0.35326812313E+02  0.43400727977E+02  0.00000000000E+00 0. -1.
         11    1    3    3    0    0  0.53902387105E+01  0.84589119159E+01 -0.20720426348E+02  0.23020511125E+02  0.51100000000E-03 0.  1.
        -11    1    3    3    0    0  0.66372631034E+01 -0.12682669897E+01 -0.53132132361E+00  0.67782051659E+01  0.51100000000E-03 0. -1.
         12    1    3    3    0    0  0.97882509543E+01  0.54470942650E+01 -0.14075064641E+02  0.17988555732E+02  0.00000000000E+00 0. -1.
</event>
<event>
 7    1  0.9175399E-010  0.4778727E+02  0.7816164E-02  0.1312668E+00
        -11   -1    0    0    0    0  0.00000000000E+00  0.00000000000E+00  0.45593999997E+02  0.45594000000E+02  0.51100000000E-03 0. -1.
         11   -1    0    0    0    0 -0.00000000000E+00 -0.00000000000E+00 -0.45593999997E+02  0.45594000000E+02  0.51100000000E-03 0.  1.
    9900012    2    1    2    0    0 -0.96762007603E+00  0.69047682042E+01 -0.42837031645E+02  0.47787269675E+02  0.19999993755E+02 0.  0.
         12    1    1    2    0    0  0.96762007603E+00 -0.69047682042E+01  0.42837031645E+02  0.43400730325E+02  0.00000000000E+00 0. -1.
         11    1    3    3    0    0  0.37509846826E+01  0.66841830271E+00 -0.58895033226E+01  0.70144792226E+01  0.51100000000E-03 0. -1.
        -11    1    3    3    0    0 -0.66415181009E+01 -0.32530009865E+00 -0.56156865093E+01  0.87035348032E+01  0.51100000000E-03 0.  1.
        -12    1    3    3    0    0  0.19229133423E+01  0.65616500001E+01 -0.31331841814E+02  0.32069255649E+02  0.00000000000E+00 0.  1.
</event>
<event>
 7    1  0.9175399E-010  0.4778728E+02  0.7816164E-02  0.1312668E+00
        -11   -1    0    0    0    0  0.00000000000E+00  0.00000000000E+00  0.45593999997E+02  0.45594000000E+02  0.51100000000E-03 0. -1.
         11   -1    0    0    0    0 -0.00000000000E+00 -0.00000000000E+00 -0.45593999997E+02  0.45594000000E+02  0.51100000000E-03 0.  1.
    9900012    2    1    2    0    0 -0.31679983344E+02 -0.38287759431E+00 -0.29662347972E+02  0.47787276191E+02  0.20000023465E+02 0.  0.
         12    1    1    2    0    0  0.31679983344E+02  0.38287759431E+00  0.29662347972E+02  0.43400723809E+02  0.00000000000E+00 0. -1.
         11    1    3    3    0    0 -0.85307487114E+01  0.63733141871E+01 -0.49868225613E+01  0.11758452569E+02  0.51100000000E-03 0. -1.
        -11    1    3    3    0    0 -0.21343369631E+02 -0.41792831844E+01 -0.16593971939E+02  0.27356274237E+02  0.51100000000E-03 0.  1.
         12    1    3    3    0    0 -0.18058650019E+01 -0.25769085969E+01 -0.80815534716E+01  0.86725493850E+01  0.00000000000E+00 0. -1.
</event>
<event>
 7    1  0.9175399E-010  0.4778729E+02  0.7816164E-02  0.1312668E+00
        -11   -1    0    0    0    0  0.00000000000E+00  0.00000000000E+00  0.45593999997E+02  0.45594000000E+02  0.51100000000E-03 0. -1.
         11   -1    0    0    0    0 -0.00000000000E+00 -0.00000000000E+00 -0.45593999997E+02  0.45594000000E+02  0.51100000000E-03 0.  1.
    9900012    2    1    2    0    0  0.42562512914E+02  0.82006623831E+00 -0.84487870213E+01  0.47787285532E+02  0.20000066056E+02 0.  0.
         12    1    1    2    0    0 -0.42562512914E+02 -0.82006623831E+00  0.84487870213E+01  0.43400714468E+02  0.00000000000E+00 0. -1.
         11    1    3    3    0    0  0.17925319136E+02 -0.65144168817E+01 -0.92388051529E+01  0.21192220609E+02  0.51100000000E-03 0. -1.
        -11    1    3    3    0    0  0.17407824484E+02  0.57918689679E+01 -0.24782168421E+01  0.18512689118E+02  0.51100000000E-03 0.  1.
        -12    1    3    3    0    0  0.72293692939E+01  0.15426141522E+01  0.32682349738E+01  0.80823758051E+01  0.00000000000E+00 0.  1.
</event>
<event>
 7    1  0.9175399E-010  0.4778727E+02  0.7816164E-02  0.1312668E+00
        -11   -1    0    0    0    0  0.00000000000E+00  0.00000000000E+00  0.45593999997E+02  0.45594000000E+02  0.51100000000E-03 0. -1.
         11   -1    0    0    0    0 -0.00000000000E+00 -0.00000000000E+00 -0.45593999997E+02  0.45594000000E+02  0.51100000000E-03 0.  1.
    9900012    2    1    2    0    0  0.46901365973E+01  0.41300956088E+02 -0.12484257944E+02  0.47787273606E+02  0.20000011681E+02 0.  0.
         12    1    1    2    0    0 -0.46901365973E+01 -0.41300956088E+02  0.12484257944E+02  0.43400726394E+02  0.00000000000E+00 0. -1.
         11    1    3    3    0    0  0.34260222837E+01  0.19484929367E+02 -0.30669202411E+01  0.20020142386E+02  0.51100000000E-03 0. -1.
        -11    1    3    3    0    0 -0.52399678079E+01  0.84574397103E+01 -0.81395071068E+01  0.12854459354E+02  0.51100000000E-03 0.  1.
        -12    1    3    3    0    0  0.65040821216E+01  0.13358587010E+02 -0.12778305958E+01  0.14912671866E+02  0.00000000000E+00 0.  1.
</event>
<event>
 7    1  0.9175399E-010  0.4778727E+02  0.7816164E-02  0.1312668E+00
        -11   -1    0    0    0    0  0.00000000000E+00  0.00000000000E+00  0.45593999997E+02  0.45594000000E+02  0.51100000000E-03 0. -1.
         11   -1    0    0    0    0 -0.00000000000E+00 -0.00000000000E+00 -0.45593999997E+02  0.45594000000E+02  0.51100000000E-03 0.  1.
    9900012    2    1    2    0    0  0.17981871027E+02  0.26740240478E+02 -0.29072929351E+02  0.47787269966E+02  0.19999995082E+02 0.  0.
         12    1    1    2    0    0 -0.17981871027E+02 -0.26740240478E+02  0.29072929351E+02  0.43400730034E+02  0.00000000000E+00 0. -1.
         11    1    3    3    0    0  0.65993262189E+01  0.20922268733E+02 -0.23557042422E+02  0.32190475042E+02  0.51100000000E-03 0.  1.
        -11    1    3    3    0    0  0.45491649664E+01 -0.10106022530E+01 -0.32286774713E+01  0.56692660266E+01  0.51100000000E-03 0. -1.
        -12    1    3    3    0    0  0.68333798414E+01  0.68285739978E+01 -0.22872094579E+01  0.99275288972E+01  0.00000000000E+00 0.  1.
</event>
<event>
 7    1  0.9175399E-010  0.4778727E+02  0.7816164E-02  0.1312668E+00
        -11   -1    0    0    0    0  0.00000000000E+00  0.00000000000E+00  0.45593999997E+02  0.45594000000E+02  0.51100000000E-03 0. -1.
         11   -1    0    0    0    0 -0.00000000000E+00 -0.00000000000E+00 -0.45593999997E+02  0.45594000000E+02  0.51100000000E-03 0.  1.
    9900012    2    1    2    0    0 -0.21023554000E+02 -0.87950151632E+01  0.36936178612E+02  0.47787269534E+02  0.19999993112E+02 0.  0.
        -12    1    1    2    0    0  0.21023554000E+02  0.87950151632E+01 -0.36936178612E+02  0.43400730466E+02  0.00000000000E+00 0.  1.
         11    1    3    3    0    0 -0.61827415508E+01 -0.38197308427E+01  0.27089368241E+02  0.28047290578E+02  0.51100000000E-03 0.  1.
        -11    1    3    3    0    0 -0.10967762230E+02 -0.67179051614E+01  0.74097472283E+01  0.14843396253E+02  0.51100000000E-03 0. -1.
        -12    1    3    3    0    0 -0.38730502198E+01  0.17426208408E+01  0.24370631430E+01  0.48965827025E+01  0.00000000000E+00 0.  1.
</event>
<event>
 7    1  0.9175399E-010  0.4778728E+02  0.7816164E-02  0.1312668E+00
        -11   -1    0    0    0    0  0.00000000000E+00  0.00000000000E+00  0.45593999997E+02  0.45594000000E+02  0.51100000000E-03 0. -1.
         11   -1    0    0    0    0 -0.00000000000E+00 -0.00000000000E+00 -0.45593999997E+02  0.45594000000E+02  0.51100000000E-03 0.  1.
    9900012    2    1    2    0    0 -0.22633064150E+02  0.35321228067E+02  0.11125552432E+02  0.47787278094E+02  0.20000032143E+02 0.  0.
         12    1    1    2    0    0  0.22633064150E+02 -0.35321228067E+02 -0.11125552432E+02  0.43400721906E+02  0.00000000000E+00 0. -1.
         11    1    3    3    0    0 -0.14190649979E+02  0.16857151394E+02  0.13058060597E+02  0.25613493451E+02  0.51100000000E-03 0. -1.
        -11    1    3    3    0    0 -0.59692089550E+01  0.39946932493E+01 -0.21350355803E+01  0.74931573382E+01  0.51100000000E-03 0.  1.
         12    1    3    3    0    0 -0.24732052166E+01  0.14469383424E+02  0.20252741503E+00  0.14680627305E+02  0.00000000000E+00 0. -1.
</event>
<event>
 7    1  0.9175399E-010  0.4778727E+02  0.7816164E-02  0.1312668E+00
        -11   -1    0    0    0    0  0.00000000000E+00  0.00000000000E+00  0.45593999997E+02  0.45594000000E+02  0.51100000000E-03 0. -1.
         11   -1    0    0    0    0 -0.00000000000E+00 -0.00000000000E+00 -0.45593999997E+02  0.45594000000E+02  0.51100000000E-03 0.  1.
    9900012    2    1    2    0    0 -0.14971968085E+01 -0.19657111083E+02 -0.38664968073E+02  0.47787269931E+02  0.19999994924E+02 0.  0.
         12    1    1    2    0    0  0.14971968085E+01  0.19657111083E+02  0.38664968073E+02  0.43400730069E+02  0.00000000000E+00 0. -1.
         11    1    3    3    0    0  0.52151848649E+00  0.66259224480E+00 -0.34444296655E+01  0.35461395906E+01  0.51100000000E-03 0. -1.
        -11    1    3    3    0    0  0.29400814562E+01 -0.11664459515E+02 -0.61569864664E+01  0.13513407318E+02  0.51100000000E-03 0.  1.
        -12    1    3    3    0    0 -0.49587967512E+01 -0.86552438128E+01 -0.29063551941E+02  0.30727723022E+02  0.00000000000E+00 0.  1.
</event>
<event>
 7    1  0.9175399E-010  0.4778727E+02  0.7816164E-02  0.1312668E+00
        -11   -1    0    0    0    0  0.00000000000E+00  0.00000000000E+00  0.45593999997E+02  0.45594000000E+02  0.51100000000E-03 0. -1.
         11   -1    0    0    0    0 -0.00000000000E+00 -0.00000000000E+00 -0.45593999997E+02  0.45594000000E+02  0.51100000000E-03 0.  1.
    9900012    2    1    2    0    0  0.31745804944E+02 -0.62546620645E+01  0.28925885140E+02  0.47787265441E+02  0.19999974452E+02 0.  0.
        -12    1    1    2    0    0 -0.31745804944E+02  0.62546620645E+01 -0.28925885140E+02  0.43400734559E+02  0.00000000000E+00 0.  1.
         11    1    3    3    0    0  0.13035391121E+02  0.41121859860E+00  0.13167264191E+02  0.18532872658E+02  0.51100000000E-03 0. -1.
        -11    1    3    3    0    0  0.34186657485E+01 -0.82003905960E+01  0.83534434322E+01  0.12194822625E+02  0.51100000000E-03 0.  1.
        -12    1    3    3    0    0  0.15291748075E+02  0.15345099329E+01  0.74051775170E+01  0.17059570158E+02  0.00000000000E+00 0.  1.
</event>
<event>
 7    1  0.9175399E-010  0.4778727E+02  0.7816164E-02  0.1312668E+00
        -11   -1    0    0    0    0  0.00000000000E+00  0.00000000000E+00  0.45593999997E+02  0.45594000000E+02  0.51100000000E-03 0. -1.
         11   -1    0    0    0    0 -0.00000000000E+00 -0.00000000000E+00 -0.45593999997E+02  0.45594000000E+02  0.51100000000E-03 0.  1.
    9900012    2    1    2    0    0 -0.93486898192E+00 -0.40414216692E+02  0.15793682409E+02  0.47787270802E+02  0.19999998895E+02 0.  0.
        -12    1    1    2    0    0  0.93486898192E+00  0.40414216692E+02 -0.15793682409E+02  0.43400729198E+02  0.00000000000E+00 0.  1.
         11    1    3    3    0    0  0.39658334713E+01 -0.26617508398E+02  0.13415126456E+02  0.30069672538E+02  0.51100000000E-03 0. -1.
        -11    1    3    3    0    0 -0.19103220445E+01  0.11880153895E+01 -0.23676664161E-01  0.22497270334E+01  0.51100000000E-03 0.  1.
        -12    1    3    3    0    0 -0.29903804087E+01 -0.14984723684E+02  0.24022326173E+01  0.15467871231E+02  0.00000000000E+00 0.  1.
</event>
<event>
 7    1  0.9175399E-010  0.4778727E+02  0.7816164E-02  0.1312668E+00
        -11   -1    0    0    0    0  0.00000000000E+00  0.00000000000E+00  0.45593999997E+02  0.45594000000E+02  0.51100000000E-03 0. -1.
         11   -1    0    0    0    0 -0.00000000000E+00 -0.00000000000E+00 -0.45593999997E+02  0.45594000000E+02  0.51100000000E-03 0.  1.
    9900012    2    1    2    0    0 -0.65613275060E+01  0.28324562619E+02  0.32222534355E+02  0.47787267443E+02  0.19999983581E+02 0.  0.
        -12    1    1    2    0    0  0.65613275060E+01 -0.28324562619E+02 -0.32222534355E+02  0.43400732557E+02  0.00000000000E+00 0.  1.
         11    1    3    3    0    0 -0.26243710751E+01  0.21274017020E+01  0.65688743808E+01  0.73866956369E+01  0.51100000000E-03 0. -1.
        -11    1    3    3    0    0 -0.53553284967E+01  0.15880060735E+02  0.24826703937E+02  0.29953649208E+02  0.51100000000E-03 0.  1.
        -12    1    3    3    0    0  0.14183720659E+01  0.10317100182E+02  0.82695603724E+00  0.10446922598E+02  0.00000000000E+00 0.  1.
</event>
<event>
 7    1  0.9175399E-010  0.4778725E+02  0.7816164E-02  0.1312668E+00
        -11   -1    0    0    0    0  0.00000000000E+00  0.00000000000E+00  0.45593999997E+02  0.45594000000E+02  0.51100000000E-03 0. -1.
         11   -1    0    0    0    0 -0.00000000000E+00 -0.00000000000E+00 -0.45593999997E+02  0.45594000000E+02  0.51100000000E-03 0.  1.
    9900012    2    1    2    0    0  0.39392362011E+02 -0.97988091621E+01  0.15357423137E+02  0.47787247803E+02  0.19999894035E+02 0.  0.
        -12    1    1    2    0    0 -0.39392362011E+02  0.97988091621E+01 -0.15357423137E+02  0.43400752197E+02  0.00000000000E+00 0.  1.
         11    1    3    3    0    0  0.20645751591E+02 -0.14110667504E+01 -0.14914006246E+01  0.20747588878E+02  0.51100000000E-03 0. -1.
        -11    1    3    3    0    0  0.10927047378E+00 -0.80472434386E+00  0.25920892350E-01  0.81252289803E+00  0.51100000000E-03 0.  1.
         12    1    3    3    0    0  0.18637339946E+02 -0.75830180678E+01  0.16822902869E+02  0.26227136028E+02  0.00000000000E+00 0. -1.
</event>
<event>
 7    1  0.9175399E-010  0.4778727E+02  0.7816164E-02  0.1312668E+00
        -11   -1    0    0    0    0  0.00000000000E+00  0.00000000000E+00  0.45593999997E+02  0.45594000000E+02  0.51100000000E-03 0. -1.
         11   -1    0    0    0    0 -0.00000000000E+00 -0.00000000000E+00 -0.45593999997E+02  0.45594000000E+02  0.51100000000E-03 0.  1.
    9900012    2    1    2    0    0 -0.12252748522E+02  0.93626144334E+01 -0.40568891861E+02  0.47787269796E+02  0.19999994309E+02 0.  0.
         12    1    1    2    0    0  0.12252748522E+02 -0.93626144334E+01  0.40568891861E+02  0.43400730204E+02  0.00000000000E+00 0. -1.
         11    1    3    3    0    0  0.41715080815E+01 -0.15467973028E+01 -0.36723180776E+01  0.57688804715E+01  0.51100000000E-03 0. -1.
        -11    1    3    3    0    0 -0.14459087209E+02  0.91130732947E+01 -0.28737194126E+02  0.33435604290E+02  0.51100000000E-03 0.  1.
         12    1    3    3    0    0 -0.19651693950E+01  0.17963384415E+01 -0.81593796579E+01  0.85827850345E+01  0.00000000000E+00 0. -1.
</event>
<event>
 7    1  0.9175399E-010  0.4778727E+02  0.7816164E-02  0.1312668E+00
        -11   -1    0    0    0    0  0.00000000000E+00  0.00000000000E+00  0.45593999997E+02  0.45594000000E+02  0.51100000000E-03 0. -1.
         11   -1    0    0    0    0 -0.00000000000E+00 -0.00000000000E+00 -0.45593999997E+02  0.45594000000E+02  0.51100000000E-03 0.  1.
    9900012    2    1    2    0    0  0.19970688787E+02 -0.37159983679E+02  0.10194639327E+02  0.47787268801E+02  0.19999989769E+02 0.  0.
        -12    1    1    2    0    0 -0.19970688787E+02  0.37159983679E+02 -0.10194639327E+02  0.43400731199E+02  0.00000000000E+00 0.  1.
         11    1    3    3    0    0  0.18480493887E+02 -0.27200012361E+02  0.59152239696E+01  0.33411961954E+02  0.51100000000E-03 0. -1.
        -11    1    3    3    0    0  0.72850773480E+00 -0.85040675838E+01  0.71058380894E+01  0.11105981461E+02  0.51100000000E-03 0.  1.
        -12    1    3    3    0    0  0.76168716517E+00 -0.14559037343E+01 -0.28264227319E+01  0.32693253861E+01  0.00000000000E+00 0.  1.
</event>
<event>
 7    1  0.9175399E-010  0.4778727E+02  0.7816164E-02  0.1312668E+00
        -11   -1    0    0    0    0  0.00000000000E+00  0.00000000000E+00  0.45593999997E+02  0.45594000000E+02  0.51100000000E-03 0. -1.
         11   -1    0    0    0    0 -0.00000000000E+00 -0.00000000000E+00 -0.45593999997E+02  0.45594000000E+02  0.51100000000E-03 0.  1.
    9900012    2    1    2    0    0 -0.30204498196E+02 -0.26365479197E+01 -0.31054151169E+02  0.47787269579E+02  0.19999993320E+02 0.  0.
         12    1    1    2    0    0  0.30204498196E+02  0.26365479197E+01  0.31054151169E+02  0.43400730421E+02  0.00000000000E+00 0. -1.
         11    1    3    3    0    0 -0.31929979496E+01 -0.37982122937E+01 -0.63230827925E+01  0.80376009353E+01  0.51100000000E-03 0. -1.
        -11    1    3    3    0    0 -0.55768670042E+01  0.40941538184E+01 -0.35998867860E-01  0.69184418224E+01  0.51100000000E-03 0.  1.
        -12    1    3    3    0    0 -0.21434633243E+02 -0.29324894444E+01 -0.24695069508E+02  0.32831226822E+02  0.00000000000E+00 0.  1.
</event>
<event>
 7    1  0.9175399E-010  0.4778727E+02  0.7816164E-02  0.1312668E+00
        -11   -1    0    0    0    0  0.00000000000E+00  0.00000000000E+00  0.45593999997E+02  0.45594000000E+02  0.51100000000E-03 0. -1.
         11   -1    0    0    0    0 -0.00000000000E+00 -0.00000000000E+00 -0.45593999997E+02  0.45594000000E+02  0.51100000000E-03 0.  1.
    9900012    2    1    2    0    0 -0.76135473878E+01 -0.15259801907E+02 -0.39909843236E+02  0.47787271375E+02  0.20000001506E+02 0.  0.
         12    1    1    2    0    0  0.76135473878E+01  0.15259801907E+02  0.39909843236E+02  0.43400728625E+02  0.00000000000E+00 0. -1.
         11    1    3    3    0    0 -0.17196612835E+01 -0.13120171686E+02 -0.32021369972E+02  0.34647716737E+02  0.51100000000E-03 0.  1.
        -11    1    3    3    0    0 -0.97299066250E+00  0.13664530655E+01 -0.67953037863E+01  0.69992898653E+01  0.51100000000E-03 0. -1.
         12    1    3    3    0    0 -0.49208954418E+01 -0.35060832865E+01 -0.10931694783E+01  0.61402647719E+01  0.00000000000E+00 0. -1.
</event>
<event>
 7    1  0.9175399E-010  0.4778727E+02  0.7816164E-02  0.1312668E+00
        -11   -1    0    0    0    0  0.00000000000E+00  0.00000000000E+00  0.45593999997E+02  0.45594000000E+02  0.51100000000E-03 0. -1.
         11   -1    0    0    0    0 -0.00000000000E+00 -0.00000000000E+00 -0.45593999997E+02  0.45594000000E+02  0.51100000000E-03 0.  1.
    9900012    2    1    2    0    0 -0.75854092189E+01  0.26766982972E+00  0.42731873098E+02  0.47787273524E+02  0.20000011307E+02 0.  0.
        -12    1    1    2    0    0  0.75854092189E+01 -0.26766982972E+00 -0.42731873098E+02  0.43400726476E+02  0.00000000000E+00 0.  1.
         11    1    3    3    0    0  0.14117874725E+01  0.70678540813E+00  0.77054798777E+01  0.78655648168E+01  0.51100000000E-03 0. -1.
        -11    1    3    3    0    0 -0.23926568308E+01  0.77242583725E+01  0.20156262214E+02  0.21717824035E+02  0.51100000000E-03 0.  1.
        -12    1    3    3    0    0 -0.66045398605E+01 -0.81633739509E+01  0.14870131007E+02  0.18203884673E+02  0.00000000000E+00 0.  1.
</event>
<event>
 7    1  0.9175399E-010  0.4778727E+02  0.7816164E-02  0.1312668E+00
        -11   -1    0    0    0    0  0.00000000000E+00  0.00000000000E+00  0.45593999997E+02  0.45594000000E+02  0.51100000000E-03 0. -1.
         11   -1    0    0    0    0 -0.00000000000E+00 -0.00000000000E+00 -0.45593999997E+02  0.45594000000E+02  0.51100000000E-03 0.  1.
    9900012    2    1    2    0    0  0.36324862401E+02 -0.14215338747E+02  0.19027657321E+02  0.47787271581E+02  0.20000002449E+02 0.  0.
        -12    1    1    2    0    0 -0.36324862401E+02  0.14215338747E+02 -0.19027657321E+02  0.43400728419E+02  0.00000000000E+00 0.  1.
         11    1    3    3    0    0  0.13537390621E+01  0.23746371396E+01  0.53000593484E+01  0.59634000663E+01  0.51100000000E-03 0. -1.
        -11    1    3    3    0    0  0.18969206963E+02 -0.13264200779E+02  0.74543974126E+01  0.24317439754E+02  0.51100000000E-03 0.  1.
         12    1    3    3    0    0  0.16001916376E+02 -0.33257751074E+01  0.62732005598E+01  0.17506431762E+02  0.00000000000E+00 0. -1.
</event>
<event>
 7    1  0.9175399E-010  0.4778727E+02  0.7816164E-02  0.1312668E+00
        -11   -1    0    0    0    0  0.00000000000E+00  0.00000000000E+00  0.45593999997E+02  0.45594000000E+02  0.51100000000E-03 0. -1.
         11   -1    0    0    0    0 -0.00000000000E+00 -0.00000000000E+00 -0.45593999997E+02  0.45594000000E+02  0.51100000000E-03 0.  1.
    9900012    2    1    2    0    0  0.14430802924E+02  0.29302292737E+02  0.28578848173E+02  0.47787274251E+02  0.20000014618E+02 0.  0.
        -12    1    1    2    0    0 -0.14430802924E+02 -0.29302292737E+02 -0.28578848173E+02  0.43400725749E+02  0.00000000000E+00 0.  1.
         11    1    3    3    0    0  0.99199794088E+01  0.25018249974E+02  0.19708855049E+02  0.33358024385E+02  0.51100000000E-03 0. -1.
        -11    1    3    3    0    0  0.61252257429E+01  0.56394650084E+01  0.90697215801E+01  0.12311856309E+02  0.51100000000E-03 0.  1.
         12    1    3    3    0    0 -0.16144022277E+01 -0.13554222454E+01 -0.19972845623E+00  0.21173935563E+01  0.00000000000E+00 0. -1.
</event>
<event>
 7    1  0.9959856E-010  0.4778726E+02  0.7816164E-02  0.1312668E+00
        -11   -1    0    0    0    0  0.00000000000E+00  0.00000000000E+00  0.45593999997E+02  0.45594000000E+02  0.51100000000E-03 0. -1.
         11   -1    0    0    0    0 -0.00000000000E+00 -0.00000000000E+00 -0.45593999997E+02  0.45594000000E+02  0.51100000000E-03 0.  1.
    9900012    2    1    2    0    0 -0.21761006955E+02 -0.22019660577E+02 -0.30417379962E+02  0.47787264069E+02  0.19999968196E+02 0.  0.
         12    1    1    2    0    0  0.21761006955E+02  0.22019660577E+02  0.30417379962E+02  0.43400735931E+02  0.00000000000E+00 0. -1.
         11    1    3    3    0    0 -0.26630365822E+01 -0.86702350120E+00 -0.13350969960E+02  0.13641550232E+02  0.51100000000E-03 0. -1.
        -11    1    3    3    0    0 -0.37587159219E+01 -0.72577686336E+01 -0.83618376219E+01  0.11692881578E+02  0.51100000000E-03 0.  1.
         12    1    3    3    0    0 -0.15339254451E+02 -0.13894868443E+02 -0.87045723794E+01  0.22452832259E+02  0.00000000000E+00 0. -1.
</event>
<event>
 7    1  0.9175399E-010  0.4778727E+02  0.7816164E-02  0.1312668E+00
        -11   -1    0    0    0    0  0.00000000000E+00  0.00000000000E+00  0.45593999997E+02  0.45594000000E+02  0.51100000000E-03 0. -1.
         11   -1    0    0    0    0 -0.00000000000E+00 -0.00000000000E+00 -0.45593999997E+02  0.45594000000E+02  0.51100000000E-03 0.  1.
    9900012    2    1    2    0    0 -0.33389033733E+00  0.48898704486E+01  0.43123090132E+02  0.47787271685E+02  0.20000002919E+02 0.  0.
        -12    1    1    2    0    0  0.33389033733E+00 -0.48898704486E+01 -0.43123090132E+02  0.43400728315E+02  0.00000000000E+00 0.  1.
         11    1    3    3    0    0  0.24891045796E+01  0.22079872617E+01  0.12173666016E+02  0.12620182007E+02  0.51100000000E-03 0. -1.
        -11    1    3    3    0    0 -0.16980931834E+01 -0.62918085616E+01  0.69856402073E+01  0.95535095542E+01  0.51100000000E-03 0.  1.
        -12    1    3    3    0    0 -0.11249017336E+01  0.89736917485E+01  0.23963783908E+02  0.25613580123E+02  0.00000000000E+00 0.  1.
</event>
<event>
 7    1  0.9175399E-010  0.4778727E+02  0.7816164E-02  0.1312668E+00
        -11   -1    0    0    0    0  0.00000000000E+00  0.00000000000E+00  0.45593999997E+02  0.45594000000E+02  0.51100000000E-03 0. -1.
         11   -1    0    0    0    0 -0.00000000000E+00 -0.00000000000E+00 -0.45593999997E+02  0.45594000000E+02  0.51100000000E-03 0.  1.
    9900012    2    1    2    0    0 -0.81340305433E+01  0.12298069023E+01 -0.42613945918E+02  0.47787271151E+02  0.20000000485E+02 0.  0.
         12    1    1    2    0    0  0.81340305433E+01 -0.12298069023E+01  0.42613945918E+02  0.43400728849E+02  0.00000000000E+00 0. -1.
         11    1    3    3    0    0  0.30638534301E+01 -0.38548315779E+01 -0.93546982850E+01  0.10571532746E+02  0.51100000000E-03 0. -1.
        -11    1    3    3    0    0 -0.95326649962E+01  0.85387448353E+01 -0.26915445337E+02  0.29803071373E+02  0.51100000000E-03 0.  1.
        -12    1    3    3    0    0 -0.16652189772E+01 -0.34541063551E+01 -0.63438022961E+01  0.74126670319E+01  0.00000000000E+00 0.  1.
</event>
<event>
 7    1  0.9175399E-010  0.4778725E+02  0.7816164E-02  0.1312668E+00
        -11   -1    0    0    0    0  0.00000000000E+00  0.00000000000E+00  0.45593999997E+02  0.45594000000E+02  0.51100000000E-03 0. -1.
         11   -1    0    0    0    0 -0.00000000000E+00 -0.00000000000E+00 -0.45593999997E+02  0.45594000000E+02  0.51100000000E-03 0.  1.
    9900012    2    1    2    0    0  0.10492386913E+02  0.35137436905E+01 -0.41966516482E+02  0.47787250197E+02  0.19999904949E+02 0.  0.
         12    1    1    2    0    0 -0.10492386913E+02 -0.35137436905E+01  0.41966516482E+02  0.43400749803E+02  0.00000000000E+00 0. -1.
         11    1    3    3    0    0  0.42437442161E+01 -0.45742131130E+01 -0.31424755549E+01  0.69862682062E+01  0.51100000000E-03 0. -1.
        -11    1    3    3    0    0 -0.14229057627E+01  0.29742699605E+00 -0.28088111145E+01  0.31626798393E+01  0.51100000000E-03 0.  1.
         12    1    3    3    0    0  0.76715484593E+01  0.77905298074E+01 -0.36015229812E+02  0.37638302152E+02  0.00000000000E+00 0. -1.
</event>
<event>
 7    1  0.9175399E-010  0.4778727E+02  0.7816164E-02  0.1312668E+00
        -11   -1    0    0    0    0  0.00000000000E+00  0.00000000000E+00  0.45593999997E+02  0.45594000000E+02  0.51100000000E-03 0.  1.
         11   -1    0    0    0    0 -0.00000000000E+00 -0.00000000000E+00 -0.45593999997E+02  0.45594000000E+02  0.51100000000E-03 0. -1.
    9900012    2    1    2    0    0  0.37393524177E+02 -0.21618301300E+02 -0.42422599010E+01  0.47787269931E+02  0.19999994922E+02 0.  0.
         12    1    1    2    0    0 -0.37393524177E+02  0.21618301300E+02  0.42422599010E+01  0.43400730069E+02  0.00000000000E+00 0. -1.
         11    1    3    3    0    0  0.15261012732E+02 -0.18609643655E+02 -0.60704979218E+01  0.24820723032E+02  0.51100000000E-03 0. -1.
        -11    1    3    3    0    0  0.22000964472E+02 -0.32747966202E+01  0.23490680835E+01  0.22367048346E+02  0.51100000000E-03 0.  1.
        -12    1    3    3    0    0  0.13154697392E+00  0.26613897507E+00 -0.52083006268E+00  0.59949855262E+00  0.00000000000E+00 0.  1.
</event>
<event>
 7    1  0.9175399E-010  0.4778726E+02  0.7816164E-02  0.1312668E+00
        -11   -1    0    0    0    0  0.00000000000E+00  0.00000000000E+00  0.45593999997E+02  0.45594000000E+02  0.51100000000E-03 0. -1.
         11   -1    0    0    0    0 -0.00000000000E+00 -0.00000000000E+00 -0.45593999997E+02  0.45594000000E+02  0.51100000000E-03 0.  1.
    9900012    2    1    2    0    0 -0.99118815936E+01 -0.94773769661E+01  0.41177150625E+02  0.47787264931E+02  0.19999972128E+02 0.  0.
        -12    1    1    2    0    0  0.99118815936E+01  0.94773769661E+01 -0.41177150625E+02  0.43400735069E+02  0.00000000000E+00 0.  1.
         11    1    3    3    0    0 -0.77787665808E+01  0.35515468721E+01  0.17634223035E+02  0.19598176370E+02  0.51100000000E-03 0. -1.
        -11    1    3    3    0    0  0.29495569716E+01 -0.70813697722E+01  0.12131002740E+02  0.14352940881E+02  0.51100000000E-03 0.  1.
        -12    1    3    3    0    0 -0.50826719844E+01 -0.59475540660E+01  0.11411924850E+02  0.13836147681E+02  0.00000000000E+00 0.  1.
</event>
<event>
 7    1  0.9175399E-010  0.4778727E+02  0.7816164E-02  0.1312668E+00
        -11   -1    0    0    0    0  0.00000000000E+00  0.00000000000E+00  0.45593999997E+02  0.45594000000E+02  0.51100000000E-03 0.  1.
         11   -1    0    0    0    0 -0.00000000000E+00 -0.00000000000E+00 -0.45593999997E+02  0.45594000000E+02  0.51100000000E-03 0. -1.
    9900012    2    1    2    0    0 -0.22598233011E+02 -0.29637051111E+02  0.22239347898E+02  0.47787268108E+02  0.19999986612E+02 0.  0.
        -12    1    1    2    0    0  0.22598233011E+02  0.29637051111E+02 -0.22239347898E+02  0.43400731892E+02  0.00000000000E+00 0.  1.
         11    1    3    3    0    0 -0.29927020655E+01 -0.63133747110E+01  0.36003379916E+01  0.78598600375E+01  0.51100000000E-03 0. -1.
        -11    1    3    3    0    0 -0.52927281965E+01 -0.16878885419E+02  0.16305895267E+02  0.24058095632E+02  0.51100000000E-03 0.  1.
        -12    1    3    3    0    0 -0.14312802749E+02 -0.64447909820E+01  0.23331146393E+01  0.15869312438E+02  0.00000000000E+00 0.  1.
</event>
<event>
 7    1  0.9175399E-010  0.4778727E+02  0.7816164E-02  0.1312668E+00
        -11   -1    0    0    0    0  0.00000000000E+00  0.00000000000E+00  0.45593999997E+02  0.45594000000E+02  0.51100000000E-03 0. -1.
         11   -1    0    0    0    0 -0.00000000000E+00 -0.00000000000E+00 -0.45593999997E+02  0.45594000000E+02  0.51100000000E-03 0.  1.
    9900012    2    1    2    0    0  0.13043642566E+02 -0.19496958361E+02  0.36515134459E+02  0.47787273724E+02  0.20000012218E+02 0.  0.
        -12    1    1    2    0    0 -0.13043642566E+02  0.19496958361E+02 -0.36515134459E+02  0.43400726276E+02  0.00000000000E+00 0.  1.
         11    1    3    3    0    0  0.68160910824E+01  0.73671396152E+00  0.44343912231E+01  0.81649048302E+01  0.51100000000E-03 0. -1.
        -11    1    3    3    0    0 -0.16175822425E+01 -0.52965861307E+01  0.38875817213E+01  0.67663645226E+01  0.51100000000E-03 0.  1.
         12    1    3    3    0    0  0.78451337262E+01 -0.14937086191E+02  0.28193161515E+02  0.32856004371E+02  0.00000000000E+00 0. -1.
</event>
<event>
 7    1  0.9175399E-010  0.4778726E+02  0.7816164E-02  0.1312668E+00
        -11   -1    0    0    0    0  0.00000000000E+00  0.00000000000E+00  0.45593999997E+02  0.45594000000E+02  0.51100000000E-03 0. -1.
         11   -1    0    0    0    0 -0.00000000000E+00 -0.00000000000E+00 -0.45593999997E+02  0.45594000000E+02  0.51100000000E-03 0.  1.
    9900012    2    1    2    0    0 -0.11004338033E+02  0.14122517899E+02 -0.39535846166E+02  0.47787261534E+02  0.19999956637E+02 0.  0.
         12    1    1    2    0    0  0.11004338033E+02 -0.14122517899E+02  0.39535846166E+02  0.43400738466E+02  0.00000000000E+00 0. -1.
         11    1    3    3    0    0 -0.12785339691E+01  0.16596923049E+01 -0.26451905736E+02  0.26534742226E+02  0.51100000000E-03 0. -1.
        -11    1    3    3    0    0 -0.78823082420E+01  0.57364119519E+01 -0.81892613537E+01  0.12731897230E+02  0.51100000000E-03 0.  1.
         12    1    3    3    0    0 -0.18434958220E+01  0.67264136420E+01 -0.48946790762E+01  0.85206220776E+01  0.00000000000E+00 0. -1.
</event>
<event>
 7    1  0.9175399E-010  0.4778727E+02  0.7816164E-02  0.1312668E+00
        -11   -1    0    0    0    0  0.00000000000E+00  0.00000000000E+00  0.45593999997E+02  0.45594000000E+02  0.51100000000E-03 0. -1.
         11   -1    0    0    0    0 -0.00000000000E+00 -0.00000000000E+00 -0.45593999997E+02  0.45594000000E+02  0.51100000000E-03 0.  1.
    9900012    2    1    2    0    0  0.31813222225E+01 -0.67891511568E+01 -0.42748216279E+02  0.47787269827E+02  0.19999994451E+02 0.  0.
         12    1    1    2    0    0 -0.31813222225E+01  0.67891511568E+01  0.42748216279E+02  0.43400730173E+02  0.00000000000E+00 0. -1.
         11    1    3    3    0    0 -0.31646187454E+01 -0.38946412813E+00  0.17853796553E+00  0.31934887157E+01  0.51100000000E-03 0. -1.
        -11    1    3    3    0    0 -0.17081131962E+01 -0.22269341174E+01 -0.70504431075E+01  0.75885199168E+01  0.51100000000E-03 0.  1.
         12    1    3    3    0    0  0.80540541641E+01 -0.41727529112E+01 -0.35876311137E+02  0.37005261195E+02  0.00000000000E+00 0. -1.
</event>
<event>
 7    1  0.1182372E-009  0.4778727E+02  0.7816164E-02  0.1312668E+00
        -11   -1    0    0    0    0  0.00000000000E+00  0.00000000000E+00  0.45593999997E+02  0.45594000000E+02  0.51100000000E-03 0. -1.
         11   -1    0    0    0    0 -0.00000000000E+00 -0.00000000000E+00 -0.45593999997E+02  0.45594000000E+02  0.51100000000E-03 0.  1.
    9900012    2    1    2    0    0 -0.19969808981E+02  0.13991498794E+02 -0.35903597229E+02  0.47787267250E+02  0.19999982700E+02 0.  0.
         12    1    1    2    0    0  0.19969808981E+02 -0.13991498794E+02  0.35903597229E+02  0.43400732750E+02  0.00000000000E+00 0. -1.
         11    1    3    3    0    0 -0.23847389606E+00  0.83127248331E+01 -0.38340341195E+01  0.91574058466E+01  0.51100000000E-03 0. -1.
        -11    1    3    3    0    0 -0.98627361419E+01  0.25741547632E+00 -0.11271828875E+02  0.14979784824E+02  0.51100000000E-03 0.  1.
         12    1    3    3    0    0 -0.98685989433E+01  0.54213584844E+01 -0.20797734234E+02  0.23650076579E+02  0.00000000000E+00 0. -1.
</event>
<event>
 7    1  0.9175399E-010  0.4778727E+02  0.7816164E-02  0.1312668E+00
        -11   -1    0    0    0    0  0.00000000000E+00  0.00000000000E+00  0.45593999997E+02  0.45594000000E+02  0.51100000000E-03 0. -1.
         11   -1    0    0    0    0 -0.00000000000E+00 -0.00000000000E+00 -0.45593999997E+02  0.45594000000E+02  0.51100000000E-03 0.  1.
    9900012    2    1    2    0    0  0.12004893694E+02 -0.95930892816E+01  0.40589142806E+02  0.47787270187E+02  0.19999996090E+02 0.  0.
        -12    1    1    2    0    0 -0.12004893694E+02  0.95930892816E+01 -0.40589142806E+02  0.43400729813E+02  0.00000000000E+00 0.  1.
         11    1    3    3    0    0  0.68931396816E+01 -0.84256525546E+01  0.18242341014E+02  0.21243587305E+02  0.51100000000E-03 0. -1.
        -11    1    3    3    0    0  0.53850010241E+01  0.23695267520E+01  0.25170274882E+01  0.63990874893E+01  0.51100000000E-03 0.  1.
        -12    1    3    3    0    0 -0.27324701191E+00 -0.35369634789E+01  0.19829774304E+02  0.20144595393E+02  0.00000000000E+00 0.  1.
</event>
<event>
 7    1  0.9175399E-010  0.4778726E+02  0.7816164E-02  0.1312668E+00
        -11   -1    0    0    0    0  0.00000000000E+00  0.00000000000E+00  0.45593999997E+02  0.45594000000E+02  0.51100000000E-03 0. -1.
         11   -1    0    0    0    0 -0.00000000000E+00 -0.00000000000E+00 -0.45593999997E+02  0.45594000000E+02  0.51100000000E-03 0.  1.
    9900012    2    1    2    0    0  0.54194006878E+01  0.58732626265E+01 -0.42658631092E+02  0.47787263551E+02  0.19999965835E+02 0.  0.
         12    1    1    2    0    0 -0.54194006878E+01 -0.58732626265E+01  0.42658631092E+02  0.43400736449E+02  0.00000000000E+00 0. -1.
         11    1    3    3    0    0 -0.30034206546E+00  0.33688866075E+00  0.51693539661E+00  0.68623741621E+00  0.51100000000E-03 0. -1.
        -11    1    3    3    0    0  0.68123587346E+01  0.80703076552E+01 -0.43063130102E+02  0.44339274595E+02  0.51100000000E-03 0.  1.
        -12    1    3    3    0    0 -0.10926159814E+01 -0.25339336894E+01 -0.11243638612E+00  0.27617515395E+01  0.00000000000E+00 0.  1.
</event>
<event>
 7    1  0.9175399E-010  0.4778727E+02  0.7816164E-02  0.1312668E+00
        -11   -1    0    0    0    0  0.00000000000E+00  0.00000000000E+00  0.45593999997E+02  0.45594000000E+02  0.51100000000E-03 0. -1.
         11   -1    0    0    0    0 -0.00000000000E+00 -0.00000000000E+00 -0.45593999997E+02  0.45594000000E+02  0.51100000000E-03 0.  1.
    9900012    2    1    2    0    0 -0.17713454013E+01  0.12566038134E+02  0.41503977670E+02  0.47787272571E+02  0.20000006960E+02 0.  0.
        -12    1    1    2    0    0  0.17713454013E+01 -0.12566038134E+02 -0.41503977670E+02  0.43400727429E+02  0.00000000000E+00 0.  1.
         11    1    3    3    0    0  0.17923197659E+01 -0.26153793377E+00  0.10324620696E+02  0.10482299605E+02  0.51100000000E-03 0. -1.
        -11    1    3    3    0    0 -0.38983908444E+01  0.15156414292E+02  0.17719196916E+02  0.23640733597E+02  0.51100000000E-03 0.  1.
        -12    1    3    3    0    0  0.33472567710E+00 -0.23288382242E+01  0.13460160058E+02  0.13664239369E+02  0.00000000000E+00 0.  1.
</event>
<event>
 7    1  0.9175399E-010  0.4778727E+02  0.7816164E-02  0.1312668E+00
        -11   -1    0    0    0    0  0.00000000000E+00  0.00000000000E+00  0.45593999997E+02  0.45594000000E+02  0.51100000000E-03 0. -1.
         11   -1    0    0    0    0 -0.00000000000E+00 -0.00000000000E+00 -0.45593999997E+02  0.45594000000E+02  0.51100000000E-03 0.  1.
    9900012    2    1    2    0    0  0.56205182768E+01  0.21598873855E+02  0.37222597551E+02  0.47787270214E+02  0.19999996212E+02 0.  0.
        -12    1    1    2    0    0 -0.56205182768E+01 -0.21598873855E+02 -0.37222597551E+02  0.43400729786E+02  0.00000000000E+00 0.  1.
         11    1    3    3    0    0  0.10059525502E+02  0.14403355169E+02  0.20661089652E+02  0.27120680657E+02  0.51100000000E-03 0. -1.
        -11    1    3    3    0    0  0.75233029512E+00 -0.97260868068E+00  0.68371626539E+01  0.69468526640E+01  0.51100000000E-03 0.  1.
         12    1    3    3    0    0 -0.51913375205E+01  0.81681273670E+01  0.97243452455E+01  0.13719736892E+02  0.00000000000E+00 0. -1.
</event>
<event>
 7    1  0.9175399E-010  0.4778728E+02  0.7816164E-02  0.1312668E+00
        -11   -1    0    0    0    0  0.00000000000E+00  0.00000000000E+00  0.45593999997E+02  0.45594000000E+02  0.51100000000E-03 0.  1.
         11   -1    0    0    0    0 -0.00000000000E+00 -0.00000000000E+00 -0.45593999997E+02  0.45594000000E+02  0.51100000000E-03 0. -1.
    9900012    2    1    2    0    0 -0.80980687000E+01  0.40659737503E+02  0.12838602229E+02  0.47787277913E+02  0.20000031316E+02 0.  0.
         12    1    1    2    0    0  0.80980687000E+01 -0.40659737503E+02 -0.12838602229E+02  0.43400722087E+02  0.00000000000E+00 0. -1.
         11    1    3    3    0    0 -0.10051296780E+01  0.42521605711E+01 -0.17595051945E+01  0.47103093298E+01  0.51100000000E-03 0. -1.
        -11    1    3    3    0    0 -0.77541447557E+01  0.36190520207E+02  0.98801137093E+01  0.38307925563E+02  0.51100000000E-03 0.  1.
        -12    1    3    3    0    0  0.66120573374E+00  0.21705672484E+00  0.47179937140E+01  0.47690430203E+01  0.00000000000E+00 0.  1.
</event>
<event>
 7    1  0.9175399E-010  0.4778726E+02  0.7816164E-02  0.1312668E+00
        -11   -1    0    0    0    0  0.00000000000E+00  0.00000000000E+00  0.45593999997E+02  0.45594000000E+02  0.51100000000E-03 0. -1.
         11   -1    0    0    0    0 -0.00000000000E+00 -0.00000000000E+00 -0.45593999997E+02  0.45594000000E+02  0.51100000000E-03 0.  1.
    9900012    2    1    2    0    0  0.33715630227E+02  0.42263274994E+01  0.27000340663E+02  0.47787263121E+02  0.19999963874E+02 0.  0.
        -12    1    1    2    0    0 -0.33715630227E+02 -0.42263274994E+01 -0.27000340663E+02  0.43400736879E+02  0.00000000000E+00 0.  1.
         11    1    3    3    0    0  0.49033016670E+01 -0.54389886364E+01  0.94774807268E+01  0.11976961460E+02  0.51100000000E-03 0. -1.
        -11    1    3    3    0    0  0.94678701106E+01  0.13665681206E+01  0.23155364715E+01  0.98422447780E+01  0.51100000000E-03 0.  1.
         12    1    3    3    0    0  0.19344458450E+02  0.82987480152E+01  0.15207323464E+02  0.25968056883E+02  0.00000000000E+00 0. -1.
</event>
<event>
 7    1  0.9175399E-010  0.4778727E+02  0.7816164E-02  0.1312668E+00
        -11   -1    0    0    0    0  0.00000000000E+00  0.00000000000E+00  0.45593999997E+02  0.45594000000E+02  0.51100000000E-03 0. -1.
         11   -1    0    0    0    0 -0.00000000000E+00 -0.00000000000E+00 -0.45593999997E+02  0.45594000000E+02  0.51100000000E-03 0.  1.
    9900012    2    1    2    0    0  0.15720958030E+02 -0.78437852856E+01  0.39685643042E+02  0.47787265529E+02  0.19999974852E+02 0.  0.
        -12    1    1    2    0    0 -0.15720958030E+02  0.78437852856E+01 -0.39685643042E+02  0.43400734471E+02  0.00000000000E+00 0.  1.
         11    1    3    3    0    0  0.19867186345E+01 -0.74966763716E+01  0.61520092045E+01  0.98992133560E+01  0.51100000000E-03 0. -1.
        -11    1    3    3    0    0  0.84404804413E+01  0.45808648288E+01  0.13331519803E+02  0.16430321152E+02  0.51100000000E-03 0.  1.
         12    1    3    3    0    0  0.52937589537E+01 -0.49279737428E+01  0.20202114035E+02  0.21457731021E+02  0.00000000000E+00 0. -1.
</event>
<event>
 7    1  0.9175399E-010  0.4778728E+02  0.7816164E-02  0.1312668E+00
        -11   -1    0    0    0    0  0.00000000000E+00  0.00000000000E+00  0.45593999997E+02  0.45594000000E+02  0.51100000000E-03 0. -1.
         11   -1    0    0    0    0 -0.00000000000E+00 -0.00000000000E+00 -0.45593999997E+02  0.45594000000E+02  0.51100000000E-03 0.  1.
    9900012    2    1    2    0    0 -0.37892295049E+02 -0.45837154136E+01 -0.20658798332E+02  0.47787280886E+02  0.20000044871E+02 0.  0.
         12    1    1    2    0    0  0.37892295049E+02  0.45837154136E+01  0.20658798332E+02  0.43400719114E+02  0.00000000000E+00 0. -1.
         11    1    3    3    0    0 -0.13844436512E+02  0.64360878756E+01 -0.25257501411E+01  0.15474852617E+02  0.51100000000E-03 0. -1.
        -11    1    3    3    0    0 -0.39657652888E+00 -0.23459410393E+00  0.20128217387E+00  0.50281419182E+00  0.51100000000E-03 0.  1.
         12    1    3    3    0    0 -0.23651282009E+02 -0.10785209185E+02 -0.18334330365E+02  0.31809614077E+02  0.00000000000E+00 0. -1.
</event>
<event>
 7    1  0.9175399E-010  0.4778727E+02  0.7816164E-02  0.1312668E+00
        -11   -1    0    0    0    0  0.00000000000E+00  0.00000000000E+00  0.45593999997E+02  0.45594000000E+02  0.51100000000E-03 0. -1.
         11   -1    0    0    0    0 -0.00000000000E+00 -0.00000000000E+00 -0.45593999997E+02  0.45594000000E+02  0.51100000000E-03 0.  1.
    9900012    2    1    2    0    0 -0.95785612851E+01 -0.15184948772E+02  0.39513181937E+02  0.47787273597E+02  0.20000011637E+02 0.  0.
        -12    1    1    2    0    0  0.95785612851E+01  0.15184948772E+02 -0.39513181937E+02  0.43400726403E+02  0.00000000000E+00 0.  1.
         11    1    3    3    0    0 -0.13195812787E+02 -0.17665239252E+02  0.31504501430E+02  0.38454177452E+02  0.51100000000E-03 0. -1.
        -11    1    3    3    0    0  0.14833440657E+01  0.16275863468E+01  0.23244730900E+01  0.32019560179E+01  0.51100000000E-03 0.  1.
         12    1    3    3    0    0  0.21339074357E+01  0.85270413341E+00  0.56842074179E+01  0.61311401267E+01  0.00000000000E+00 0. -1.
</event>
<event>
 7    1  0.9175399E-010  0.4778727E+02  0.7816164E-02  0.1312668E+00
        -11   -1    0    0    0    0  0.00000000000E+00  0.00000000000E+00  0.45593999997E+02  0.45594000000E+02  0.51100000000E-03 0. -1.
         11   -1    0    0    0    0 -0.00000000000E+00 -0.00000000000E+00 -0.45593999997E+02  0.45594000000E+02  0.51100000000E-03 0.  1.
    9900012    2    1    2    0    0 -0.13564508344E+02 -0.11843822764E+02  0.39488626449E+02  0.47787266790E+02  0.19999980604E+02 0.  0.
        -12    1    1    2    0    0  0.13564508344E+02  0.11843822764E+02 -0.39488626449E+02  0.43400733210E+02  0.00000000000E+00 0.  1.
         11    1    3    3    0    0 -0.14216716688E+02 -0.60019153609E+01  0.20220751899E+02  0.25436525490E+02  0.51100000000E-03 0. -1.
        -11    1    3    3    0    0  0.29452219026E+01 -0.61860937651E+01  0.67429014840E+01  0.96129500576E+01  0.51100000000E-03 0.  1.
         12    1    3    3    0    0 -0.22930135589E+01  0.34418636184E+00  0.12524973066E+02  0.12737791242E+02  0.00000000000E+00 0. -1.
</event>
<event>
 7    1  0.9175399E-010  0.4778727E+02  0.7816164E-02  0.1312668E+00
        -11   -1    0    0    0    0  0.00000000000E+00  0.00000000000E+00  0.45593999997E+02  0.45594000000E+02  0.51100000000E-03 0.  1.
         11   -1    0    0    0    0 -0.00000000000E+00 -0.00000000000E+00 -0.45593999997E+02  0.45594000000E+02  0.51100000000E-03 0. -1.
    9900012    2    1    2    0    0  0.26130513891E+02  0.18403449548E+02  0.29362094203E+02  0.47787270888E+02  0.19999999286E+02 0.  0.
        -12    1    1    2    0    0 -0.26130513891E+02 -0.18403449548E+02 -0.29362094203E+02  0.43400729112E+02  0.00000000000E+00 0.  1.
         11    1    3    3    0    0  0.11586777326E+02  0.11523443280E+02  0.73764655814E+01  0.17929177297E+02  0.51100000000E-03 0. -1.
        -11    1    3    3    0    0  0.16484600144E+02  0.49806157197E+01  0.20462839510E+02  0.26744651352E+02  0.51100000000E-03 0.  1.
        -12    1    3    3    0    0 -0.19408635801E+01  0.18993905489E+01  0.15227891123E+01  0.31134422388E+01  0.00000000000E+00 0.  1.
</event>
<event>
 7    1  0.9175399E-010  0.4778727E+02  0.7816164E-02  0.1312668E+00
        -11   -1    0    0    0    0  0.00000000000E+00  0.00000000000E+00  0.45593999997E+02  0.45594000000E+02  0.51100000000E-03 0. -1.
         11   -1    0    0    0    0 -0.00000000000E+00 -0.00000000000E+00 -0.45593999997E+02  0.45594000000E+02  0.51100000000E-03 0.  1.
    9900012    2    1    2    0    0  0.18749381992E+02  0.39130397238E+02  0.94657715748E+00  0.47787270497E+02  0.19999997502E+02 0.  0.
        -12    1    1    2    0    0 -0.18749381992E+02 -0.39130397238E+02 -0.94657715748E+00  0.43400729503E+02  0.00000000000E+00 0.  1.
         11    1    3    3    0    0  0.60408141076E+01  0.11776015609E+02 -0.17278118782E+01  0.13347333548E+02  0.51100000000E-03 0. -1.
        -11    1    3    3    0    0 -0.83594477018E+00  0.84260432906E+01 -0.51191377896E+01  0.98945733189E+01  0.51100000000E-03 0.  1.
        -12    1    3    3    0    0  0.13544512655E+02  0.18928338339E+02  0.77935268252E+01  0.24545363630E+02  0.00000000000E+00 0.  1.
</event>
<event>
 7    1  0.9175399E-010  0.4778727E+02  0.7816164E-02  0.1312668E+00
        -11   -1    0    0    0    0  0.00000000000E+00  0.00000000000E+00  0.45593999997E+02  0.45594000000E+02  0.51100000000E-03 0. -1.
         11   -1    0    0    0    0 -0.00000000000E+00 -0.00000000000E+00 -0.45593999997E+02  0.45594000000E+02  0.51100000000E-03 0.  1.
    9900012    2    1    2    0    0  0.11381177045E+02 -0.27118271821E+02  0.31916945038E+02  0.47787271457E+02  0.20000001881E+02 0.  0.
        -12    1    1    2    0    0 -0.11381177045E+02  0.27118271821E+02 -0.31916945038E+02  0.43400728543E+02  0.00000000000E+00 0.  1.
         11    1    3    3    0    0  0.11658165454E+02 -0.16514472499E+02  0.21187928640E+02  0.29284278102E+02  0.51100000000E-03 0. -1.
        -11    1    3    3    0    0 -0.23428955649E+01 -0.13091948259E+01  0.82336064378E+01  0.86599899511E+01  0.51100000000E-03 0.  1.
        -12    1    3    3    0    0  0.20659071561E+01 -0.92946044970E+01  0.24954099601E+01  0.98430034035E+01  0.00000000000E+00 0.  1.
</event>
<event>
 7    1  0.9175399E-010  0.4778727E+02  0.7816164E-02  0.1312668E+00
        -11   -1    0    0    0    0  0.00000000000E+00  0.00000000000E+00  0.45593999997E+02  0.45594000000E+02  0.51100000000E-03 0.  1.
         11   -1    0    0    0    0 -0.00000000000E+00 -0.00000000000E+00 -0.45593999997E+02  0.45594000000E+02  0.51100000000E-03 0. -1.
    9900012    2    1    2    0    0 -0.18679889460E+02  0.38944498660E+02  0.42439709052E+01  0.47787268034E+02  0.19999986275E+02 0.  0.
         12    1    1    2    0    0  0.18679889460E+02 -0.38944498660E+02 -0.42439709052E+01  0.43400731966E+02  0.00000000000E+00 0. -1.
         11    1    3    3    0    0 -0.18493420325E+01  0.11893993705E+01  0.35325673943E+01  0.41609817919E+01  0.51100000000E-03 0. -1.
        -11    1    3    3    0    0 -0.37310229924E+01  0.19398669817E+02 -0.49712564874E+01  0.20370132905E+02  0.51100000000E-03 0.  1.
        -12    1    3    3    0    0 -0.13099524435E+02  0.18356429473E+02  0.56826599984E+01  0.23256153338E+02  0.00000000000E+00 0.  1.
</event>
<event>
 7    1  0.9175399E-010  0.4778725E+02  0.7816164E-02  0.1312668E+00
        -11   -1    0    0    0    0  0.00000000000E+00  0.00000000000E+00  0.45593999997E+02  0.45594000000E+02  0.51100000000E-03 0. -1.
         11   -1    0    0    0    0 -0.00000000000E+00 -0.00000000000E+00 -0.45593999997E+02  0.45594000000E+02  0.51100000000E-03 0.  1.
    9900012    2    1    2    0    0 -0.14020679137E+01 -0.24721440104E+02  0.35644205475E+02  0.47787253703E+02  0.19999920932E+02 0.  0.
        -12    1    1    2    0    0  0.14020679137E+01  0.24721440104E+02 -0.35644205475E+02  0.43400746297E+02  0.00000000000E+00 0.  1.
         11    1    3    3    0    0  0.25940636965E+01 -0.13064881268E+02  0.78915201163E+01  0.15482130959E+02  0.51100000000E-03 0.  1.
        -11    1    3    3    0    0 -0.64804084557E+01 -0.12216131275E+02  0.24891454993E+02  0.28474797436E+02  0.51100000000E-03 0. -1.
        -12    1    3    3    0    0  0.24842768455E+01  0.55957243980E+00  0.28612303657E+01  0.38303253082E+01  0.00000000000E+00 0.  1.
</event>
<event>
 7    1  0.9175399E-010  0.4778728E+02  0.7816164E-02  0.1312668E+00
        -11   -1    0    0    0    0  0.00000000000E+00  0.00000000000E+00  0.45593999997E+02  0.45594000000E+02  0.51100000000E-03 0. -1.
         11   -1    0    0    0    0 -0.00000000000E+00 -0.00000000000E+00 -0.45593999997E+02  0.45594000000E+02  0.51100000000E-03 0.  1.
    9900012    2    1    2    0    0 -0.84657337411E+01  0.38844311294E+02 -0.17409010229E+02  0.47787276449E+02  0.20000024639E+02 0.  0.
         12    1    1    2    0    0  0.84657337411E+01 -0.38844311294E+02  0.17409010229E+02  0.43400723551E+02  0.00000000000E+00 0. -1.
         11    1    3    3    0    0 -0.86557350125E+00  0.13937576242E+01  0.17989411110E+01  0.24347417077E+01  0.51100000000E-03 0. -1.
        -11    1    3    3    0    0 -0.11665528122E+00  0.95954835038E+01 -0.12466866471E+02  0.15732440116E+02  0.51100000000E-03 0.  1.
        -12    1    3    3    0    0 -0.74835049586E+01  0.27855070166E+02 -0.67410848688E+01  0.29620094625E+02  0.00000000000E+00 0.  1.
</event>
<event>
 7    1  0.9175399E-010  0.4778727E+02  0.7816164E-02  0.1312668E+00
        -11   -1    0    0    0    0  0.00000000000E+00  0.00000000000E+00  0.45593999997E+02  0.45594000000E+02  0.51100000000E-03 0. -1.
         11   -1    0    0    0    0 -0.00000000000E+00 -0.00000000000E+00 -0.45593999997E+02  0.45594000000E+02  0.51100000000E-03 0.  1.
    9900012    2    1    2    0    0 -0.17794037661E+02  0.29456089010E+02 -0.26444933171E+02  0.47787269056E+02  0.19999990935E+02 0.  0.
         12    1    1    2    0    0  0.17794037661E+02 -0.29456089010E+02  0.26444933171E+02  0.43400730944E+02  0.00000000000E+00 0. -1.
         11    1    3    3    0    0 -0.72083503192E+01  0.27960310854E+02 -0.19494165217E+02  0.34839084017E+02  0.51100000000E-03 0. -1.
        -11    1    3    3    0    0 -0.41692365383E+01  0.15509720810E+00 -0.39262286928E+01  0.57290366089E+01  0.51100000000E-03 0.  1.
         12    1    3    3    0    0 -0.64164508038E+01  0.13406809485E+01 -0.30245392606E+01  0.72191484305E+01  0.00000000000E+00 0. -1.
</event>
<event>
 7    1  0.9175399E-010  0.4778727E+02  0.7816164E-02  0.1312668E+00
        -11   -1    0    0    0    0  0.00000000000E+00  0.00000000000E+00  0.45593999997E+02  0.45594000000E+02  0.51100000000E-03 0. -1.
         11   -1    0    0    0    0 -0.00000000000E+00 -0.00000000000E+00 -0.45593999997E+02  0.45594000000E+02  0.51100000000E-03 0.  1.
    9900012    2    1    2    0    0  0.36703135282E+02  0.16951439063E+02  0.15784544411E+02  0.47787271111E+02  0.20000000304E+02 0.  0.
        -12    1    1    2    0    0 -0.36703135282E+02 -0.16951439063E+02 -0.15784544411E+02  0.43400728889E+02  0.00000000000E+00 0.  1.
         11    1    3    3    0    0  0.18664538263E+02  0.12377124503E+02  0.67680008914E+01  0.23395812358E+02  0.51100000000E-03 0. -1.
        -11    1    3    3    0    0 -0.18830898642E+01  0.14232682926E+01  0.16780083467E+00  0.23664060198E+01  0.51100000000E-03 0.  1.
        -12    1    3    3    0    0  0.19921686882E+02  0.31510462679E+01  0.88487426849E+01  0.22025052734E+02  0.00000000000E+00 0.  1.
</event>
<event>
 7    1  0.9175399E-010  0.4778727E+02  0.7816164E-02  0.1312668E+00
        -11   -1    0    0    0    0  0.00000000000E+00  0.00000000000E+00  0.45593999997E+02  0.45594000000E+02  0.51100000000E-03 0. -1.
         11   -1    0    0    0    0 -0.00000000000E+00 -0.00000000000E+00 -0.45593999997E+02  0.45594000000E+02  0.51100000000E-03 0.  1.
    9900012    2    1    2    0    0 -0.86502705445E+00  0.33884995581E+02 -0.27105017228E+02  0.47787272399E+02  0.20000006178E+02 0.  0.
         12    1    1    2    0    0  0.86502705445E+00 -0.33884995581E+02  0.27105017228E+02  0.43400727601E+02  0.00000000000E+00 0. -1.
         11    1    3    3    0    0 -0.38505343163E+01  0.21986576190E+01 -0.18272012453E+01  0.47957663099E+01  0.51100000000E-03 0. -1.
        -11    1    3    3    0    0  0.74623453775E+01  0.15560870662E+02 -0.17356819698E+02  0.24476243269E+02  0.51100000000E-03 0.  1.
        -12    1    3    3    0    0 -0.44768381156E+01  0.16125467300E+02 -0.79209962853E+01  0.18515262820E+02  0.00000000000E+00 0.  1.
</event>
<event>
 7    1  0.9175399E-010  0.4778727E+02  0.7816164E-02  0.1312668E+00
        -11   -1    0    0    0    0  0.00000000000E+00  0.00000000000E+00  0.45593999997E+02  0.45594000000E+02  0.51100000000E-03 0. -1.
         11   -1    0    0    0    0 -0.00000000000E+00 -0.00000000000E+00 -0.45593999997E+02  0.45594000000E+02  0.51100000000E-03 0.  1.
    9900012    2    1    2    0    0 -0.18149628709E+02  0.15440783807E+02  0.36273906272E+02  0.47787273012E+02  0.20000008970E+02 0.  0.
        -12    1    1    2    0    0  0.18149628709E+02 -0.15440783807E+02 -0.36273906272E+02  0.43400726988E+02  0.00000000000E+00 0.  1.
         11    1    3    3    0    0 -0.39909402870E+01 -0.16467496681E+01  0.15937529879E+02  0.16511942579E+02  0.51100000000E-03 0. -1.
        -11    1    3    3    0    0 -0.13828676868E+02  0.17847278530E+02  0.20420634141E+02  0.30442732365E+02  0.51100000000E-03 0.  1.
        -12    1    3    3    0    0 -0.33001155463E+00 -0.75974505477E+00 -0.84257747775E-01  0.83259806779E+00  0.00000000000E+00 0.  1.
</event>
<event>
 7    1  0.9175399E-010  0.4778727E+02  0.7816164E-02  0.1312668E+00
        -11   -1    0    0    0    0  0.00000000000E+00  0.00000000000E+00  0.45593999997E+02  0.45594000000E+02  0.51100000000E-03 0. -1.
         11   -1    0    0    0    0 -0.00000000000E+00 -0.00000000000E+00 -0.45593999997E+02  0.45594000000E+02  0.51100000000E-03 0.  1.
    9900012    2    1    2    0    0 -0.19806124961E+02  0.10676298098E+02 -0.37112769642E+02  0.47787267315E+02  0.19999982997E+02 0.  0.
         12    1    1    2    0    0  0.19806124961E+02 -0.10676298098E+02  0.37112769642E+02  0.43400732685E+02  0.00000000000E+00 0. -1.
         11    1    3    3    0    0 -0.23540602372E+02  0.83585300463E+01 -0.27223704506E+02  0.36948004978E+02  0.51100000000E-03 0. -1.
        -11    1    3    3    0    0  0.21120383322E+01  0.10120766564E+01 -0.48121270638E+01  0.53517821531E+01  0.51100000000E-03 0.  1.
         12    1    3    3    0    0  0.16224390784E+01  0.13056913956E+01 -0.50769380719E+01  0.54874801840E+01  0.00000000000E+00 0. -1.
</event>
<event>
 7    1  0.9175399E-010  0.4778727E+02  0.7816164E-02  0.1312668E+00
        -11   -1    0    0    0    0  0.00000000000E+00  0.00000000000E+00  0.45593999997E+02  0.45594000000E+02  0.51100000000E-03 0. -1.
         11   -1    0    0    0    0 -0.00000000000E+00 -0.00000000000E+00 -0.45593999997E+02  0.45594000000E+02  0.51100000000E-03 0.  1.
    9900012    2    1    2    0    0  0.14432037845E+02 -0.10563552044E+02  0.39544291307E+02  0.47787270478E+02  0.19999997416E+02 0.  0.
        -12    1    1    2    0    0 -0.14432037845E+02  0.10563552044E+02 -0.39544291307E+02  0.43400729522E+02  0.00000000000E+00 0.  1.
         11    1    3    3    0    0  0.48374991916E+01  0.40061483941E+01  0.78518772441E+01  0.10054978861E+02  0.51100000000E-03 0. -1.
        -11    1    3    3    0    0  0.29101965310E+01 -0.10952001714E+02  0.11448071385E+02  0.16108194315E+02  0.51100000000E-03 0.  1.
         12    1    3    3    0    0  0.66843421222E+01 -0.36176987243E+01  0.20244342677E+02  0.21624097301E+02  0.00000000000E+00 0. -1.
</event>
<event>
 7    1  0.9175399E-010  0.4778727E+02  0.7816164E-02  0.1312668E+00
        -11   -1    0    0    0    0  0.00000000000E+00  0.00000000000E+00  0.45593999997E+02  0.45594000000E+02  0.51100000000E-03 0. -1.
         11   -1    0    0    0    0 -0.00000000000E+00 -0.00000000000E+00 -0.45593999997E+02  0.45594000000E+02  0.51100000000E-03 0.  1.
    9900012    2    1    2    0    0  0.62438739537E+01  0.19562538252E+01 -0.42904665983E+02  0.47787271272E+02  0.20000001038E+02 0.  0.
         12    1    1    2    0    0 -0.62438739537E+01 -0.19562538252E+01  0.42904665983E+02  0.43400728728E+02  0.00000000000E+00 0. -1.
         11    1    3    3    0    0  0.10819813706E+02  0.15925648765E+01 -0.22828974136E+02  0.25313369825E+02  0.51100000000E-03 0. -1.
        -11    1    3    3    0    0  0.82186798994E+00  0.26016410329E+01 -0.17553989314E+01  0.32442917141E+01  0.51100000000E-03 0.  1.
         12    1    3    3    0    0 -0.53978077427E+01 -0.22379520842E+01 -0.18320292916E+02  0.19229609733E+02  0.00000000000E+00 0. -1.
</event>
<event>
 7    1  0.9175399E-010  0.4778727E+02  0.7816164E-02  0.1312668E+00
        -11   -1    0    0    0    0  0.00000000000E+00  0.00000000000E+00  0.45593999997E+02  0.45594000000E+02  0.51100000000E-03 0.  1.
         11   -1    0    0    0    0 -0.00000000000E+00 -0.00000000000E+00 -0.45593999997E+02  0.45594000000E+02  0.51100000000E-03 0. -1.
    9900012    2    1    2    0    0  0.35092882098E+02  0.25425982038E+02  0.23732655368E+01  0.47787270446E+02  0.19999997271E+02 0.  0.
        -12    1    1    2    0    0 -0.35092882098E+02 -0.25425982038E+02 -0.23732655368E+01  0.43400729554E+02  0.00000000000E+00 0.  1.
         11    1    3    3    0    0  0.30770821559E+01  0.52957479728E+01  0.47414003916E+01  0.77455961113E+01  0.51100000000E-03 0.  1.
        -11    1    3    3    0    0  0.10979941794E+02  0.56500012611E+01 -0.68384713129E+01  0.14115464080E+02  0.51100000000E-03 0. -1.
        -12    1    3    3    0    0  0.21035858148E+02  0.14480232804E+02  0.44703364581E+01  0.25926210254E+02  0.00000000000E+00 0.  1.
</event>
<event>
 7    1  0.9175399E-010  0.4778727E+02  0.7816164E-02  0.1312668E+00
        -11   -1    0    0    0    0  0.00000000000E+00  0.00000000000E+00  0.45593999997E+02  0.45594000000E+02  0.51100000000E-03 0. -1.
         11   -1    0    0    0    0 -0.00000000000E+00 -0.00000000000E+00 -0.45593999997E+02  0.45594000000E+02  0.51100000000E-03 0.  1.
    9900012    2    1    2    0    0  0.15689503309E+01  0.31305847433E+02  0.30018422023E+02  0.47787270175E+02  0.19999996034E+02 0.  0.
        -12    1    1    2    0    0 -0.15689503309E+01 -0.31305847433E+02 -0.30018422023E+02  0.43400729825E+02  0.00000000000E+00 0.  1.
         11    1    3    3    0    0 -0.36094055172E+01  0.11055623616E+02  0.51624498238E+01  0.12724209609E+02  0.51100000000E-03 0. -1.
        -11    1    3    3    0    0  0.29543250719E+01  0.53746233077E+01  0.17045112456E+02  0.18114923992E+02  0.51100000000E-03 0.  1.
        -12    1    3    3    0    0  0.22240307762E+01  0.14875600509E+02  0.78108597429E+01  0.16948136574E+02  0.00000000000E+00 0.  1.
</event>
<event>
 7    1  0.9175399E-010  0.4778728E+02  0.7816164E-02  0.1312668E+00
        -11   -1    0    0    0    0  0.00000000000E+00  0.00000000000E+00  0.45593999997E+02  0.45594000000E+02  0.51100000000E-03 0. -1.
         11   -1    0    0    0    0 -0.00000000000E+00 -0.00000000000E+00 -0.45593999997E+02  0.45594000000E+02  0.51100000000E-03 0.  1.
    9900012    2    1    2    0    0  0.76042505189E+01  0.21324308847E+02  0.37027986527E+02  0.47787279269E+02  0.20000037497E+02 0.  0.
        -12    1    1    2    0    0 -0.76042505189E+01 -0.21324308847E+02 -0.37027986527E+02  0.43400720731E+02  0.00000000000E+00 0.  1.
         11    1    3    3    0    0  0.14131710121E+01  0.11145365846E+02  0.15358269933E+02  0.19028733214E+02  0.51100000000E-03 0. -1.
        -11    1    3    3    0    0 -0.19030320653E+01  0.24847053859E+01 -0.11647749347E+01  0.33394599573E+01  0.51100000000E-03 0.  1.
        -12    1    3    3    0    0  0.80941115722E+01  0.76942376146E+01  0.22834491529E+02  0.25419086097E+02  0.00000000000E+00 0.  1.
</event>
<event>
 7    1  0.9175399E-010  0.4778727E+02  0.7816164E-02  0.1312668E+00
        -11   -1    0    0    0    0  0.00000000000E+00  0.00000000000E+00  0.45593999997E+02  0.45594000000E+02  0.51100000000E-03 0. -1.
         11   -1    0    0    0    0 -0.00000000000E+00 -0.00000000000E+00 -0.45593999997E+02  0.45594000000E+02  0.51100000000E-03 0.  1.
    9900012    2    1    2    0    0 -0.73411046353E+01  0.91261032233E+01  0.41790498675E+02  0.47787270089E+02  0.19999995645E+02 0.  0.
        -12    1    1    2    0    0  0.73411046353E+01 -0.91261032233E+01 -0.41790498675E+02  0.43400729911E+02  0.00000000000E+00 0.  1.
         11    1    3    3    0    0 -0.89492705462E+01  0.19977646816E+00  0.88746198838E+01  0.12605087556E+02  0.51100000000E-03 0.  1.
        -11    1    3    3    0    0  0.51219401190E+01  0.54474644719E+01  0.19578056060E+02  0.20957323758E+02  0.51100000000E-03 0. -1.
         12    1    3    3    0    0 -0.35137742081E+01  0.34788622832E+01  0.13337822731E+02  0.14224858775E+02  0.00000000000E+00 0. -1.
</event>
<event>
 7    1  0.9175399E-010  0.4778727E+02  0.7816164E-02  0.1312668E+00
        -11   -1    0    0    0    0  0.00000000000E+00  0.00000000000E+00  0.45593999997E+02  0.45594000000E+02  0.51100000000E-03 0. -1.
         11   -1    0    0    0    0 -0.00000000000E+00 -0.00000000000E+00 -0.45593999997E+02  0.45594000000E+02  0.51100000000E-03 0.  1.
    9900012    2    1    2    0    0  0.40059777468E+02 -0.16537172497E+02  0.23150531411E+01  0.47787270559E+02  0.19999997785E+02 0.  0.
        -12    1    1    2    0    0 -0.40059777468E+02  0.16537172497E+02 -0.23150531411E+01  0.43400729441E+02  0.00000000000E+00 0.  1.
         11    1    3    3    0    0  0.11143676972E+02 -0.71478540406E+01  0.75574398782E+01  0.15244285868E+02  0.51100000000E-03 0. -1.
        -11    1    3    3    0    0  0.14448579880E+02 -0.45497208775E+01 -0.78579963303E+01  0.17064862355E+02  0.51100000000E-03 0.  1.
        -12    1    3    3    0    0  0.14467520615E+02 -0.48395975794E+01  0.26156095932E+01  0.15478122335E+02  0.00000000000E+00 0.  1.
</event>
<event>
 7    1  0.9175399E-010  0.4778727E+02  0.7816164E-02  0.1312668E+00
        -11   -1    0    0    0    0  0.00000000000E+00  0.00000000000E+00  0.45593999997E+02  0.45594000000E+02  0.51100000000E-03 0. -1.
         11   -1    0    0    0    0 -0.00000000000E+00 -0.00000000000E+00 -0.45593999997E+02  0.45594000000E+02  0.51100000000E-03 0.  1.
    9900012    2    1    2    0    0  0.30443644372E+02  0.16774207553E+02 -0.25989117148E+02  0.47787265769E+02  0.19999975946E+02 0.  0.
         12    1    1    2    0    0 -0.30443644372E+02 -0.16774207553E+02  0.25989117148E+02  0.43400734231E+02  0.00000000000E+00 0. -1.
         11    1    3    3    0    0  0.21041034726E+01 -0.15993563762E+01 -0.16490447341E+01  0.31152112348E+01  0.51100000000E-03 0. -1.
        -11    1    3    3    0    0  0.12513927950E+02  0.14706534338E+02 -0.20121634140E+02  0.27888361474E+02  0.51100000000E-03 0.  1.
        -12    1    3    3    0    0  0.15825612950E+02  0.36670295908E+01 -0.42184382733E+01  0.16783693060E+02  0.00000000000E+00 0.  1.
</event>
<event>
 7    1  0.9175399E-010  0.4778727E+02  0.7816164E-02  0.1312668E+00
        -11   -1    0    0    0    0  0.00000000000E+00  0.00000000000E+00  0.45593999997E+02  0.45594000000E+02  0.51100000000E-03 0. -1.
         11   -1    0    0    0    0 -0.00000000000E+00 -0.00000000000E+00 -0.45593999997E+02  0.45594000000E+02  0.51100000000E-03 0.  1.
    9900012    2    1    2    0    0  0.29103818884E+02 -0.77630531538E+00 -0.32186776513E+02  0.47787268372E+02  0.19999987815E+02 0.  0.
         12    1    1    2    0    0 -0.29103818884E+02  0.77630531538E+00  0.32186776513E+02  0.43400731628E+02  0.00000000000E+00 0. -1.
         11    1    3    3    0    0  0.21784656019E+01 -0.23431377328E+01  0.89235002361E+00  0.33214899727E+01  0.51100000000E-03 0. -1.
        -11    1    3    3    0    0  0.17046664089E+02  0.69561196580E+01 -0.21774410300E+02  0.28514931202E+02  0.51100000000E-03 0.  1.
        -12    1    3    3    0    0  0.98786891930E+01 -0.53892872407E+01 -0.11304716236E+02  0.15950847197E+02  0.00000000000E+00 0.  1.
</event>
